 Entering Gaussian System, Link 0=/usr/local/g09_d01/g09
 Input=act_mult1.com
 Output=act_mult1.log
 Initial command:
 /usr/local/g09_d01/l1.exe "/tmp/696468.1.all.q/Gau-22432.inp" -scrdir="/tmp/696468.1.all.q/"
 Entering Link 1 = /usr/local/g09_d01/l1.exe PID=     22434.
  
 Copyright (c) 1988,1990,1992,1993,1995,1998,2003,2009,2013,
            Gaussian, Inc.  All Rights Reserved.
  
 This is part of the Gaussian(R) 09 program.  It is based on
 the Gaussian(R) 03 system (copyright 2003, Gaussian, Inc.),
 the Gaussian(R) 98 system (copyright 1998, Gaussian, Inc.),
 the Gaussian(R) 94 system (copyright 1995, Gaussian, Inc.),
 the Gaussian 92(TM) system (copyright 1992, Gaussian, Inc.),
 the Gaussian 90(TM) system (copyright 1990, Gaussian, Inc.),
 the Gaussian 88(TM) system (copyright 1988, Gaussian, Inc.),
 the Gaussian 86(TM) system (copyright 1986, Carnegie Mellon
 University), and the Gaussian 82(TM) system (copyright 1983,
 Carnegie Mellon University). Gaussian is a federally registered
 trademark of Gaussian, Inc.
  
 This software contains proprietary and confidential information,
 including trade secrets, belonging to Gaussian, Inc.
  
 This software is provided under written license and may be
 used, copied, transmitted, or stored only in accord with that
 written license.
  
 The following legend is applicable only to US Government
 contracts under FAR:
  
                    RESTRICTED RIGHTS LEGEND
  
 Use, reproduction and disclosure by the US Government is
 subject to restrictions as set forth in subparagraphs (a)
 and (c) of the Commercial Computer Software - Restricted
 Rights clause in FAR 52.227-19.
  
 Gaussian, Inc.
 340 Quinnipiac St., Bldg. 40, Wallingford CT 06492
  
  
 ---------------------------------------------------------------
 Warning -- This program may not be used in any manner that
 competes with the business of Gaussian, Inc. or will provide
 assistance to any competitor of Gaussian, Inc.  The licensee
 of this program is prohibited from giving any competitor of
 Gaussian, Inc. access to this program.  By using this program,
 the user acknowledges that Gaussian, Inc. is engaged in the
 business of creating and licensing software in the field of
 computational chemistry and represents and warrants to the
 licensee that it is not a competitor of Gaussian, Inc. and that
 it will not use this program in any manner prohibited above.
 ---------------------------------------------------------------
  

 Cite this work as:
 Gaussian 09, Revision D.01,
 M. J. Frisch, G. W. Trucks, H. B. Schlegel, G. E. Scuseria, 
 M. A. Robb, J. R. Cheeseman, G. Scalmani, V. Barone, B. Mennucci, 
 G. A. Petersson, H. Nakatsuji, M. Caricato, X. Li, H. P. Hratchian, 
 A. F. Izmaylov, J. Bloino, G. Zheng, J. L. Sonnenberg, M. Hada, 
 M. Ehara, K. Toyota, R. Fukuda, J. Hasegawa, M. Ishida, T. Nakajima, 
 Y. Honda, O. Kitao, H. Nakai, T. Vreven, J. A. Montgomery, Jr., 
 J. E. Peralta, F. Ogliaro, M. Bearpark, J. J. Heyd, E. Brothers, 
 K. N. Kudin, V. N. Staroverov, T. Keith, R. Kobayashi, J. Normand, 
 K. Raghavachari, A. Rendell, J. C. Burant, S. S. Iyengar, J. Tomasi, 
 M. Cossi, N. Rega, J. M. Millam, M. Klene, J. E. Knox, J. B. Cross, 
 V. Bakken, C. Adamo, J. Jaramillo, R. Gomperts, R. E. Stratmann, 
 O. Yazyev, A. J. Austin, R. Cammi, C. Pomelli, J. W. Ochterski, 
 R. L. Martin, K. Morokuma, V. G. Zakrzewski, G. A. Voth, 
 P. Salvador, J. J. Dannenberg, S. Dapprich, A. D. Daniels, 
 O. Farkas, J. B. Foresman, J. V. Ortiz, J. Cioslowski, 
 and D. J. Fox, Gaussian, Inc., Wallingford CT, 2013.
 
 ******************************************
 Gaussian 09:  ES64L-G09RevD.01 24-Apr-2013
                20-Oct-2017 
 ******************************************
 %mem=1500MB
 %Nprocs= 1
 Will use up to    1 processors via shared memory.
 %rwf=a,1800MB,b,1800MB,c,1800MB,d,7200MB,e,7200MB,f,7200MB,g,7200MB,h,7200MB,j,1
 4400MB
 %nosave
 %chk=obs
 ----------------------------------------------------------------------
 #PBE1PBE/6-31+G(d) density=current FormCheck=All SCRF=(PCM,Read,G03Def
 aults) #Pop=ChelpG nosymm
 ----------------------------------------------------------------------
 1/30=1,38=1,40=2/1;
 2/12=2,15=1,17=6,18=5,40=1/2;
 3/5=1,6=6,7=11,11=2,16=1,25=1,30=1,70=302203,72=1,74=-13/1,2,3;
 4//1;
 5/5=2,38=5/2;
 6/7=2,8=2,9=2,10=2,15=8,20=3,22=-1,28=1/1,2;
 99/5=1,9=1/99;
 Leave Link    1 at Fri Oct 20 13:01:16 2017, MaxMem=   196608000 cpu:         0.1
 (Enter /usr/local/g09_d01/l101.exe)
 ----------------------------
 Charge density of molecule 1
 ----------------------------
 Symbolic Z-matrix:
 Charge =  0 Multiplicity = 1
 C                    -2.50608   2.18183  -0.13176 
 C                    -1.80921   0.98313  -0.46059 
 C                    -2.29001   0.21988  -1.54422 
 C                    -3.41711   0.6075   -2.24655 
 C                    -4.11904   1.76933  -1.90676 
 C                    -3.65104   2.54423  -0.86164 
 C                    -2.02943   3.05183   0.94704 
 C                    -0.02123  -0.61316   0.19145 
 C                     1.37933  -0.61316   0.19145 
 C                     2.07616  -1.8164    0.19145 
 C                     1.39918  -3.03605   0.17254 
 C                     0.00807  -3.03391   0.17349 
 C                    -0.70134  -1.83714   0.1946 
 C                     3.57795  -1.82295   0.23343 
 F                     4.10779  -0.61512  -0.0277 
 F                     4.09971  -2.68889  -0.65847 
 F                     4.03897  -2.19949   1.44576 
 N                    -0.69152   0.61379   0.24464 
 O                    -2.85369   4.07788   1.22361 
 O                    -0.99128   2.90098   1.58091 
 H                    -1.74843  -0.66957  -1.84798 
 H                    -3.74954  -0.00219  -3.08343 
 H                    -5.00492   2.06549  -2.46001 
 H                    -4.16453   3.45961  -0.58703 
 H                     1.91418   0.33171   0.18169 
 H                     1.95239  -3.97025   0.16054 
 H                    -0.53316  -3.97621   0.17573 
 H                    -1.78656  -1.84775   0.23492 
 H                    -0.3385    1.33816   0.868 
 H                    -2.49933   4.55928   1.98847 
 
 NAtoms=     30 NQM=       30 NQMF=       0 NMMI=      0 NMMIF=      0
                NMic=       0 NMicF=      0.
                    Isotopes and Nuclear Properties:
 (Nuclear quadrupole moments (NQMom) in fm**2, nuclear magnetic moments (NMagM)
  in nuclear magnetons)

  Atom         1           2           3           4           5           6           7           8           9          10
 IAtWgt=          12          12          12          12          12          12          12          12          12          12
 AtmWgt=  12.0000000  12.0000000  12.0000000  12.0000000  12.0000000  12.0000000  12.0000000  12.0000000  12.0000000  12.0000000
 NucSpn=           0           0           0           0           0           0           0           0           0           0
 AtZEff=   0.0000000   0.0000000   0.0000000   0.0000000   0.0000000   0.0000000   0.0000000   0.0000000   0.0000000   0.0000000
 NQMom=    0.0000000   0.0000000   0.0000000   0.0000000   0.0000000   0.0000000   0.0000000   0.0000000   0.0000000   0.0000000
 NMagM=    0.0000000   0.0000000   0.0000000   0.0000000   0.0000000   0.0000000   0.0000000   0.0000000   0.0000000   0.0000000
 AtZNuc=   6.0000000   6.0000000   6.0000000   6.0000000   6.0000000   6.0000000   6.0000000   6.0000000   6.0000000   6.0000000

  Atom        11          12          13          14          15          16          17          18          19          20
 IAtWgt=          12          12          12          12          19          19          19          14          16          16
 AtmWgt=  12.0000000  12.0000000  12.0000000  12.0000000  18.9984033  18.9984033  18.9984033  14.0030740  15.9949146  15.9949146
 NucSpn=           0           0           0           0           1           1           1           2           0           0
 AtZEff=   0.0000000   0.0000000   0.0000000   0.0000000   0.0000000   0.0000000   0.0000000   0.0000000   0.0000000   0.0000000
 NQMom=    0.0000000   0.0000000   0.0000000   0.0000000   0.0000000   0.0000000   0.0000000   2.0440000   0.0000000   0.0000000
 NMagM=    0.0000000   0.0000000   0.0000000   0.0000000   2.6288670   2.6288670   2.6288670   0.4037610   0.0000000   0.0000000
 AtZNuc=   6.0000000   6.0000000   6.0000000   6.0000000   9.0000000   9.0000000   9.0000000   7.0000000   8.0000000   8.0000000

  Atom        21          22          23          24          25          26          27          28          29          30
 IAtWgt=           1           1           1           1           1           1           1           1           1           1
 AtmWgt=   1.0078250   1.0078250   1.0078250   1.0078250   1.0078250   1.0078250   1.0078250   1.0078250   1.0078250   1.0078250
 NucSpn=           1           1           1           1           1           1           1           1           1           1
 AtZEff=   0.0000000   0.0000000   0.0000000   0.0000000   0.0000000   0.0000000   0.0000000   0.0000000   0.0000000   0.0000000
 NQMom=    0.0000000   0.0000000   0.0000000   0.0000000   0.0000000   0.0000000   0.0000000   0.0000000   0.0000000   0.0000000
 NMagM=    2.7928460   2.7928460   2.7928460   2.7928460   2.7928460   2.7928460   2.7928460   2.7928460   2.7928460   2.7928460
 AtZNuc=   1.0000000   1.0000000   1.0000000   1.0000000   1.0000000   1.0000000   1.0000000   1.0000000   1.0000000   1.0000000
 Leave Link  101 at Fri Oct 20 13:01:16 2017, MaxMem=   196608000 cpu:         0.1
 (Enter /usr/local/g09_d01/l202.exe)
                          Input orientation:                          
 ---------------------------------------------------------------------
 Center     Atomic      Atomic             Coordinates (Angstroms)
 Number     Number       Type             X           Y           Z
 ---------------------------------------------------------------------
      1          6           0       -2.506084    2.181826   -0.131759
      2          6           0       -1.809207    0.983127   -0.460586
      3          6           0       -2.290014    0.219875   -1.544215
      4          6           0       -3.417109    0.607503   -2.246547
      5          6           0       -4.119035    1.769328   -1.906762
      6          6           0       -3.651035    2.544232   -0.861638
      7          6           0       -2.029429    3.051834    0.947044
      8          6           0       -0.021231   -0.613158    0.191449
      9          6           0        1.379329   -0.613158    0.191449
     10          6           0        2.076159   -1.816398    0.191449
     11          6           0        1.399177   -3.036051    0.172538
     12          6           0        0.008070   -3.033908    0.173494
     13          6           0       -0.701341   -1.837144    0.194601
     14          6           0        3.577948   -1.822946    0.233434
     15          9           0        4.107788   -0.615116   -0.027700
     16          9           0        4.099710   -2.688891   -0.658465
     17          9           0        4.038973   -2.199485    1.445761
     18          7           0       -0.691517    0.613785    0.244638
     19          8           0       -2.853692    4.077879    1.223614
     20          8           0       -0.991279    2.900979    1.580909
     21          1           0       -1.748432   -0.669569   -1.847980
     22          1           0       -3.749544   -0.002191   -3.083428
     23          1           0       -5.004919    2.065486   -2.460013
     24          1           0       -4.164530    3.459608   -0.587033
     25          1           0        1.914182    0.331706    0.181688
     26          1           0        1.952385   -3.970253    0.160540
     27          1           0       -0.533159   -3.976207    0.175726
     28          1           0       -1.786560   -1.847753    0.234920
     29          1           0       -0.338497    1.338155    0.867998
     30          1           0       -2.499325    4.559284    1.988467
 ---------------------------------------------------------------------
                    Distance matrix (angstroms):
                    1          2          3          4          5
     1  C    0.000000
     2  C    1.425007   0.000000
     3  C    2.427132   1.409958   0.000000
     4  C    2.789406   2.432303   1.383426   0.000000
     5  C    2.433598   2.836343   2.424369   1.399282   0.000000
     6  C    1.405338   2.447493   2.778655   2.392407   1.382673
     7  C    1.465582   2.511866   3.780776   4.254343   3.762377
     8  C    3.753784   2.483975   2.975542   4.354977   5.183698
     9  C    4.797169   3.624919   4.143736   5.517214   6.349074
    10  C    6.089927   4.833069   5.120782   6.480364   7.459246
    11  C    6.524561   5.181541   5.211375   6.505695   7.606959
    12  C    5.798106   4.454338   4.338066   5.554127   6.665699
    13  C    4.417661   3.100091   3.127090   4.394417   5.394720
    14  C    7.292942   6.113685   6.462672   7.809495   8.759476
    15  F    7.181714   6.144315   6.627888   7.939909   8.769097
    16  F    8.224221   6.959754   7.076302   8.360071   9.433013
    17  F    8.032573   6.925633   7.406034   8.780973   9.671814
    18  N    2.427567   1.372219   2.431122   3.692546   4.208525
    19  O    2.356456   3.674911   4.781507   4.939936   4.090202
    20  O    2.396883   2.918024   4.317572   5.078789   4.819475
    21  H    3.413196   2.158694   1.084756   2.138750   3.401681
    22  H    3.876657   3.408087   2.132772   1.087479   2.158552
    23  H    3.417379   3.921962   3.408178   2.166200   1.085627
    24  H    2.142532   3.420014   3.863402   3.383360   2.144948
    25  H    4.802077   3.834122   4.546043   5.864730   6.544317
    26  H    7.603385   6.250708   6.201718   7.455292   8.606897
    27  H    6.473666   5.160250   4.863316   5.932535   7.085650
    28  H    4.109705   2.915154   2.773783   3.852876   4.807340
    29  H    2.531744   2.013497   3.298142   4.439830   4.709317
    30  H    3.185547   4.388966   5.599475   5.864661   5.057680
                    6          7          8          9         10
     6  C    0.000000
     7  C    2.481652   0.000000
     8  C    4.924792   4.246875   0.000000
     9  C    6.031805   5.061889   1.400560   0.000000
    10  C    7.274946   6.412991   2.418022   1.390453   0.000000
    11  C    7.596955   7.029761   2.808617   2.423048   1.395068
    12  C    6.751014   6.464212   2.420994   2.782212   2.399926
    13  C    5.386352   5.121728   1.400250   2.413988   2.777579
    14  C    8.516432   7.464275   3.797294   2.509836   1.502390
    15  F    8.418804   7.215406   4.134831   2.737247   2.370363
    16  F    9.354192   8.549850   4.691820   3.525832   2.361854
    17  F    9.325404   8.040558   4.535966   3.341173   2.360655
    18  N    3.702596   2.868356   1.399107   2.407617   3.683565
    19  O    2.708524   1.344868   5.576202   6.402317   7.753148
    20  O    3.628720   1.225682   3.901378   4.460890   5.795983
    21  H    3.862808   4.662613   2.673140   3.734346   4.483524
    22  H    3.380876   5.341401   4.999842   6.115835   6.924954
    23  H    2.148721   4.629737   6.248402   7.413771   8.499467
    24  H    1.084895   2.660513   5.861773   6.922993   8.209048
    25  H    6.079099   4.851488   2.153761   1.085786   2.154224
    26  H    8.653420   8.110680   3.894381   3.405794   2.157630
    27  H    7.301603   7.226833   3.401825   3.868844   3.387265
    28  H    4.895737   4.957021   2.154646   3.398377   3.863091
    29  H    3.926725   2.408775   2.089497   2.686311   4.029825
    30  H    3.675591   1.891499   6.010356   6.710245   8.050692
                   11         12         13         14         15
    11  C    0.000000
    12  C    1.391109   0.000000
    13  C    2.418686   1.391385   0.000000
    14  C    2.494469   3.770153   4.279489   0.000000
    15  F    3.638351   4.764318   4.966940   1.344535   0.000000
    16  F    2.846746   4.189595   4.950079   1.348177   2.167596
    17  F    3.047862   4.308492   4.916022   1.350579   2.164728
    18  N    4.206840   3.714855   2.451459   4.915904   4.961622
    19  O    8.354619   7.737567   6.378008   8.784429   8.488356
    20  O    6.553328   6.180809   4.945273   6.708874   6.399299
    21  H    4.426079   3.572360   2.575222   5.833771   6.132838
    22  H    6.805509   5.823960   4.837775   8.246749   8.452859
    23  H    8.600491   7.620317   6.387353   9.800008   9.805264
    24  H    8.586348   7.755949   6.376536   9.408746   9.238370
    25  H    3.406920   3.867905   3.397799   2.722741   2.398379
    26  H    1.085779   2.158071   3.404934   2.694197   3.992260
    27  H    2.148913   1.086674   2.145747   4.641235   5.733821
    28  H    3.400715   2.152077   1.086020   5.364566   6.027578
    29  H    4.757820   4.440426   3.266136   5.072847   4.938319
    30  H    8.728404   8.199861   6.882223   8.985892   8.630949
                   16         17         18         19         20
    16  F    0.000000
    17  F    2.161244   0.000000
    18  N    5.888898   5.633358   0.000000
    19  O    9.883380   9.325421   4.199207   0.000000
    20  O    7.885405   7.164945   2.665846   2.231891   0.000000
    21  H    6.300268   6.832527   2.672661   5.761471   5.007931
    22  H    8.643471   9.273761   4.561467   6.000011   6.147557
    23  H   10.428036  10.734851   5.294149   4.716631   5.756423
    24  H   10.300816  10.171285   4.566421   2.319267   3.883499
    25  H    3.821831   3.538297   2.621679   6.152402   4.123189
    26  H    2.631285   3.023452   5.292513   9.434030   7.608971
    27  H    4.880218   5.066964   4.593240   8.446967   7.034209
    28  H    6.012805   5.960427   2.694139   6.101590   4.999461
    29  H    6.184244   5.657822   1.018780   3.736142   1.837603
    30  H   10.153303   9.419386   4.677186   0.970735   2.278219
                   21         22         23         24         25
    21  H    0.000000
    22  H    2.444622   0.000000
    23  H    4.296489   2.497979   0.000000
    24  H    4.947486   4.288153   2.481508   0.000000
    25  H    4.305444   6.546011   7.606480   6.879349   0.000000
    26  H    5.350207   7.666866   9.576091   9.652893   4.302181
    27  H    4.062774   6.063004   7.965288   8.310235   4.954556
    28  H    2.393333   4.274440   5.738810   5.873536   4.295156
    29  H    3.659974   5.389391   5.777557   4.610445   2.560961
    30  H    6.528635   6.935000   5.682077   3.258128   6.373061
                   26         27         28         29         30
    26  H    0.000000
    27  H    2.485598   0.000000
    28  H    4.300029   2.470796   0.000000
    29  H    5.824760   5.362796   3.556358   0.000000
    30  H    9.793469   8.944632   6.680800   4.037363   0.000000
 Symmetry turned off by external request.
 Stoichiometry    C14H10F3NO2
 Framework group  C1[X(C14H10F3NO2)]
 Deg. of freedom    84
 Full point group                 C1      NOp   1
 Rotational constants (GHZ):      0.6965861      0.1551499      0.1373119
 Leave Link  202 at Fri Oct 20 13:01:16 2017, MaxMem=   196608000 cpu:         0.0
 (Enter /usr/local/g09_d01/l301.exe)
 Standard basis: 6-31+G(d) (6D, 7F)
 Ernie: Thresh=  0.10000D-02 Tol=  0.10000D-05 Strict=F.
   400 basis functions,   680 primitive gaussians,   400 cartesian basis functions
    72 alpha electrons       72 beta electrons
       nuclear repulsion energy      1484.9180499806 Hartrees.
 IExCor= 1009 DFT=T Ex+Corr=PBE1PBE ExCW=0 ScaHFX=  0.250000
 ScaDFX=  0.750000  0.750000  1.000000  1.000000 ScalE2=  1.000000  1.000000
 IRadAn=      0 IRanWt=     -1 IRanGd=            0 ICorTp=0 IEmpDi=  4
 NAtoms=   30 NActive=   30 NUniq=   30 SFac= 1.00D+00 NAtFMM=   60 NAOKFM=F Big=F
 Integral buffers will be    131072 words long.
 Raffenetti 2 integral format.
 Two-electron integral symmetry is turned off.
 Warning! Using old PCM defaults because it has been requested by the route generator.
 These settings can be overridden by following keywords.
 Using the following non-standard input for PCM:
 EPS=3.0
 --- end of non-standard input.
 ------------------------------------------------------------------------------
 United Atom Topological Model (UA0  parameters set).
  Nord Group  Hybr  Charge Alpha Radius          Bonded to
    1   C     *     0.00   1.00  1.925   C2   [s]  C6   [s]  C7   [s]
    2   C     *     0.00   1.00  1.925   C1   [s]  C3   [s]  N18  [s]
    3   CH    *     0.00   1.00  2.125   C2   [s]  C4   [d]
    4   CH    *     0.00   1.00  2.125   C3   [d]  C5   [s]
    5   CH    *     0.00   1.00  2.125   C4   [s]  C6   [d]
    6   CH    *     0.00   1.00  2.125   C1   [s]  C5   [d]
    7   C     *     0.00   1.00  1.925   C1   [s]  O19  [s]  O20  [d]
    8   C     *     0.00   1.00  1.925   C9   [s]  C13  [s]  N18  [s]
    9   CH    *     0.00   1.00  2.125   C8   [s]  C10  [d]
   10   C     *     0.00   1.00  1.925   C9   [d]  C11  [s]  C14  [s]
   11   CH    *     0.00   1.00  2.125   C10  [s]  C12  [d]
   12   CH    *     0.00   1.00  2.125   C11  [d]  C13  [d]
   13   CH    *     0.00   1.00  2.125   C8   [s]  C12  [d]
   14   C     *     0.00   1.00  1.925   C10  [s]  F15  [s]  F16  [s]  F17  [s]
   15   F     *     0.00   1.00  1.682   C14  [s]
   16   F     *     0.00   1.00  1.682   C14  [s]
   17   F     *     0.00   1.00  1.682   C14  [s]
   18   NH    *     0.00   1.00  1.930   C2   [s]  C8   [s]
   19   OH    *     0.00   1.00  1.850   C7   [s]
   20   O     *     0.00   1.00  1.750   C7   [d]
 ------------------------------------------------------------------------------
 Polarizable Continuum Model (PCM)
 =================================
 Model                : PCM (using non-symmetric T matrix).
 Atomic radii         : UA0 (Simple United Atom Topological Model).
 Polarization charges : Total charges.
 Charge compensation  : None.
 Solution method      : On-the-fly selection.
 Cavity type          : SES (Solvent Excluding Surface) (Alpha=1.000).
 Cavity algorithm     : GePol (RMin=0.200 OFac=0.890).
                        Default sphere list used, NSphG=   20.
                        Tesserae with average area of 0.200 Ang**2.
                        Smoothing algorithm: None.
                        Polarization charges: point-like.
                        Self-potential: constant (ISelfS= 1).
                        Self-field    : global E.n sum rule (ISelfD= 3).
 Solvent              : Water, Eps=   3.000000 Eps(inf)=   1.777849
                        RSolv=   1.385000 Ang.
 ------------------------------------------------------------------------------
 Spheres list:
 ISph  on   Nord     Re0    Alpha      Xe            Ye            Ze
    1   C      1    1.9250  1.000     -2.506084      2.181826     -0.131759
    2   C      2    1.9250  1.000     -1.809207      0.983127     -0.460586
    3   C      3    2.1250  1.000     -2.290014      0.219875     -1.544215
    4   C      4    2.1250  1.000     -3.417109      0.607503     -2.246547
    5   C      5    2.1250  1.000     -4.119035      1.769328     -1.906762
    6   C      6    2.1250  1.000     -3.651035      2.544232     -0.861638
    7   C      7    1.9250  1.000     -2.029429      3.051834      0.947044
    8   C      8    1.9250  1.000     -0.021231     -0.613158      0.191449
    9   C      9    2.1250  1.000      1.379329     -0.613158      0.191449
   10   C     10    1.9250  1.000      2.076159     -1.816398      0.191449
   11   C     11    2.1250  1.000      1.399177     -3.036051      0.172538
   12   C     12    2.1250  1.000      0.008070     -3.033908      0.173494
   13   C     13    2.1250  1.000     -0.701341     -1.837144      0.194601
   14   C     14    1.9250  1.000      3.577948     -1.822946      0.233434
   15   F     15    1.6820  1.000      4.107788     -0.615116     -0.027700
   16   F     16    1.6820  1.000      4.099710     -2.688891     -0.658465
   17   F     17    1.6820  1.000      4.038973     -2.199485      1.445761
   18   N     18    1.9300  1.000     -0.691517      0.613785      0.244638
   19   O     19    1.8500  1.000     -2.853692      4.077879      1.223614
   20   O     20    1.7500  1.000     -0.991279      2.900979      1.580909
 ------------------------------------------------------------------------------
 GePol: Number of generator spheres                  =      20
 GePol: Total number of spheres                      =     127
 GePol: Number of exposed spheres                    =     110 ( 86.61%)
 GePol: Number of tesserae                           =    2573
 GePol: Average area of tesserae                     =       0.11 Ang**2
 GePol: Minimum area of tessera                      =   0.10D-02 Ang**2
 GePol: Maximum area of tessera                      =    0.30017 Ang**2
 GePol: Number of small tesserae                     =      11
 GePol: Fraction of small tesserae (<1% of avg)      =       0.43%
 GePol: Total count of vertices                      =    9441
 GePol: Maximum number of vertices in a tessera      =       9
 GePol: Cavity surface area                          =    279.783 Ang**2
 GePol: Cavity volume                                =    300.599 Ang**3
 Leave Link  301 at Fri Oct 20 13:01:17 2017, MaxMem=   196608000 cpu:         0.2
 (Enter /usr/local/g09_d01/l302.exe)
 NPDir=0 NMtPBC=     1 NCelOv=     1 NCel=       1 NClECP=     1 NCelD=      1
         NCelK=      1 NCelE2=     1 NClLst=     1 CellRange=     0.0.
 One-electron integrals computed using PRISM.
 NBasis=   400 RedAO= T EigKep=  1.37D-06  NBF=   400
 NBsUse=   398 1.00D-06 EigRej=  9.49D-07 NBFU=   398
 Precomputing XC quadrature grid using
 IXCGrd= 4 IRadAn=           0 IRanWt=          -1 IRanGd=           0 AccXCQ= 0.00D+00.
 Generated NRdTot=       0 NPtTot=           0 NUsed=           0 NTot=          32
 NSgBfM=   395   395   395   395   395 MxSgAt=    30 MxSgA2=    30.
 Leave Link  302 at Fri Oct 20 13:01:18 2017, MaxMem=   196608000 cpu:         0.9
 (Enter /usr/local/g09_d01/l303.exe)
 DipDrv:  MaxL=1.
 Leave Link  303 at Fri Oct 20 13:01:18 2017, MaxMem=   196608000 cpu:         0.1
 (Enter /usr/local/g09_d01/l401.exe)
 ExpMin= 4.38D-02 ExpMax= 7.00D+03 ExpMxC= 1.05D+03 IAcc=2 IRadAn=         4 AccDes= 0.00D+00
 Harris functional with IExCor= 1009 and IRadAn=       4 diagonalized for initial guess.
 HarFok:  IExCor= 1009 AccDes= 0.00D+00 IRadAn=         4 IDoV= 1 UseB2=F ITyADJ=14
 ICtDFT=  3500011 ScaDFX=  1.000000  1.000000  1.000000  1.000000
 FoFCou: FMM=F IPFlag=           0 FMFlag=      100000 FMFlg1=           0
         NFxFlg=           0 DoJE=T BraDBF=F KetDBF=T FulRan=T
         wScrn=  0.000000 ICntrl=     500 IOpCl=  0 I1Cent=   200000004 NGrid=           0
         NMat0=    1 NMatS0=      1 NMatT0=    0 NMatD0=    1 NMtDS0=    0 NMtDT0=    0
 Symmetry not used in FoFCou.
 Harris En= -1043.34255818257    
 JPrj=0 DoOrth=F DoCkMO=F.
 Leave Link  401 at Fri Oct 20 13:01:26 2017, MaxMem=   196608000 cpu:         8.1
 (Enter /usr/local/g09_d01/l502.exe)
 Closed shell SCF:
 Using DIIS extrapolation, IDIIS=  1040.
 Two-electron integral symmetry not used.
 IVT=      503410 IEndB=      503410 NGot=   196608000 MDV=   196281631
 LenX=   196281631 LenY=   196121190
 Requested convergence on RMS density matrix=1.00D-08 within 128 cycles.
 Requested convergence on MAX density matrix=1.00D-06.
 Requested convergence on             energy=1.00D-06.
 No special actions if energy rises.
 Fock matrices will be formed incrementally for  20 cycles.

 Cycle   1  Pass 1  IDiag  1:
 FoFJK:  IHMeth= 1 ICntrl=       0 DoSepK=F KAlg= 0 I1Cent=   0 FoldK=F
 IRaf= 800000000 NMat=   1 IRICut=       1 DoRegI=T DoRafI=F ISym2E= 0.
 FoFCou: FMM=F IPFlag=           0 FMFlag=      100000 FMFlg1=           0
         NFxFlg=           0 DoJE=F BraDBF=F KetDBF=F FulRan=T
         wScrn=  0.000000 ICntrl=       0 IOpCl=  0 I1Cent=           0 NGrid=           0
         NMat0=    1 NMatS0=      1 NMatT0=    0 NMatD0=    1 NMtDS0=    0 NMtDT0=    0
 Symmetry not used in FoFCou.
 Inv3:  Mode=1 IEnd=    19860987.
 Iteration    1 A*A^-1 deviation from unit magnitude is 1.93D-14 for   1854.
 Iteration    1 A*A^-1 deviation from orthogonality  is 1.22D-13 for   1854   1070.
 Iteration    1 A^-1*A deviation from unit magnitude is 1.77D-13 for   1070.
 Iteration    1 A^-1*A deviation from orthogonality  is 5.74D-14 for   1854   1070.
 E= -1042.86308864212    
 DIIS: error= 1.60D-02 at cycle   1 NSaved=   1.
 NSaved= 1 IEnMin= 1 EnMin= -1042.86308864212     IErMin= 1 ErrMin= 1.60D-02
 ErrMax= 1.60D-02  0.00D+00 EMaxC= 1.00D-01 BMatC= 3.95D-01 BMatP= 3.95D-01
 IDIUse=3 WtCom= 8.40D-01 WtEn= 1.60D-01
 Coeff-Com:  0.100D+01
 Coeff-En:   0.100D+01
 Coeff:      0.100D+01
 Gap=     0.175 Goal=   None    Shift=    0.000
 GapD=    0.175 DampG=1.000 DampE=0.500 DampFc=0.5000 IDamp=-1.
 Damping current iteration by 5.00D-01
 RMSDP=3.98D-02 MaxDP=4.54D+00              OVMax= 2.05D-01

 Cycle   2  Pass 1  IDiag  1:
 RMSU=  1.98D-02    CP:  1.01D+00
 E= -1043.00593828298     Delta-E=       -0.142849640854 Rises=F Damp=T
 DIIS: error= 8.11D-03 at cycle   2 NSaved=   2.
 NSaved= 2 IEnMin= 2 EnMin= -1043.00593828298     IErMin= 2 ErrMin= 8.11D-03
 ErrMax= 8.11D-03  0.00D+00 EMaxC= 1.00D-01 BMatC= 3.51D-02 BMatP= 3.95D-01
 IDIUse=3 WtCom= 9.19D-01 WtEn= 8.11D-02
 Coeff-Com:  0.851D-01 0.915D+00
 Coeff-En:   0.160D+00 0.840D+00
 Coeff:      0.911D-01 0.909D+00
 Gap=     0.169 Goal=   None    Shift=    0.000
 RMSDP=2.28D-02 MaxDP=2.88D+00 DE=-1.43D-01 OVMax= 1.33D-01

 Cycle   3  Pass 1  IDiag  1:
 RMSU=  8.84D-03    CP:  7.90D-01  6.01D-01
 E= -1043.18813150502     Delta-E=       -0.182193222049 Rises=F Damp=F
 DIIS: error= 4.97D-03 at cycle   3 NSaved=   3.
 NSaved= 3 IEnMin= 3 EnMin= -1043.18813150502     IErMin= 3 ErrMin= 4.97D-03
 ErrMax= 4.97D-03  0.00D+00 EMaxC= 1.00D-01 BMatC= 2.35D-02 BMatP= 3.51D-02
 IDIUse=3 WtCom= 9.50D-01 WtEn= 4.97D-02
 Coeff-Com: -0.288D-01 0.443D+00 0.586D+00
 Coeff-En:   0.000D+00 0.000D+00 0.100D+01
 Coeff:     -0.273D-01 0.421D+00 0.607D+00
 Gap=     0.169 Goal=   None    Shift=    0.000
 RMSDP=6.73D-03 MaxDP=7.09D-01 DE=-1.82D-01 OVMax= 5.45D-02

 Cycle   4  Pass 1  IDiag  1:
 RMSU=  4.92D-03    CP:  8.18D-01  4.56D-01  7.05D-01
 E= -1043.20334209959     Delta-E=       -0.015210594569 Rises=F Damp=F
 DIIS: error= 2.31D-03 at cycle   4 NSaved=   4.
 NSaved= 4 IEnMin= 4 EnMin= -1043.20334209959     IErMin= 4 ErrMin= 2.31D-03
 ErrMax= 2.31D-03  0.00D+00 EMaxC= 1.00D-01 BMatC= 6.37D-03 BMatP= 2.35D-02
 IDIUse=3 WtCom= 9.77D-01 WtEn= 2.31D-02
 Coeff-Com: -0.268D-01 0.103D+00 0.371D+00 0.553D+00
 Coeff-En:   0.000D+00 0.000D+00 0.236D+00 0.764D+00
 Coeff:     -0.262D-01 0.101D+00 0.368D+00 0.557D+00
 Gap=     0.164 Goal=   None    Shift=    0.000
 RMSDP=2.57D-03 MaxDP=1.97D-01 DE=-1.52D-02 OVMax= 2.15D-02

 Cycle   5  Pass 1  IDiag  1:
 RMSU=  1.05D-03    CP:  8.10D-01  5.37D-01  7.84D-01  7.14D-01
 E= -1043.20874891829     Delta-E=       -0.005406818694 Rises=F Damp=F
 DIIS: error= 7.26D-04 at cycle   5 NSaved=   5.
 NSaved= 5 IEnMin= 5 EnMin= -1043.20874891829     IErMin= 5 ErrMin= 7.26D-04
 ErrMax= 7.26D-04  0.00D+00 EMaxC= 1.00D-01 BMatC= 3.76D-04 BMatP= 6.37D-03
 IDIUse=3 WtCom= 9.93D-01 WtEn= 7.26D-03
 Coeff-Com: -0.127D-01 0.301D-01 0.165D+00 0.305D+00 0.512D+00
 Coeff-En:   0.000D+00 0.000D+00 0.000D+00 0.000D+00 0.100D+01
 Coeff:     -0.126D-01 0.299D-01 0.164D+00 0.303D+00 0.516D+00
 Gap=     0.164 Goal=   None    Shift=    0.000
 RMSDP=5.78D-04 MaxDP=6.08D-02 DE=-5.41D-03 OVMax= 5.49D-03

 Cycle   6  Pass 1  IDiag  1:
 RMSU=  3.65D-04    CP:  8.07D-01  5.49D-01  7.85D-01  6.70D-01  8.58D-01
 E= -1043.20902960873     Delta-E=       -0.000280690442 Rises=F Damp=F
 DIIS: error= 1.64D-04 at cycle   6 NSaved=   6.
 NSaved= 6 IEnMin= 6 EnMin= -1043.20902960873     IErMin= 6 ErrMin= 1.64D-04
 ErrMax= 1.64D-04  0.00D+00 EMaxC= 1.00D-01 BMatC= 2.82D-05 BMatP= 3.76D-04
 IDIUse=3 WtCom= 9.98D-01 WtEn= 1.64D-03
 Coeff-Com: -0.472D-02 0.832D-02 0.554D-01 0.111D+00 0.274D+00 0.556D+00
 Coeff-En:   0.000D+00 0.000D+00 0.000D+00 0.000D+00 0.000D+00 0.100D+01
 Coeff:     -0.471D-02 0.830D-02 0.553D-01 0.111D+00 0.274D+00 0.557D+00
 Gap=     0.165 Goal=   None    Shift=    0.000
 RMSDP=1.71D-04 MaxDP=1.31D-02 DE=-2.81D-04 OVMax= 1.32D-03

 Cycle   7  Pass 1  IDiag  1:
 RMSU=  6.61D-05    CP:  8.08D-01  5.44D-01  7.85D-01  6.82D-01  8.17D-01
                    CP:  7.44D-01
 E= -1043.20905130874     Delta-E=       -0.000021700009 Rises=F Damp=F
 DIIS: error= 3.63D-05 at cycle   7 NSaved=   7.
 NSaved= 7 IEnMin= 7 EnMin= -1043.20905130874     IErMin= 7 ErrMin= 3.63D-05
 ErrMax= 3.63D-05  0.00D+00 EMaxC= 1.00D-01 BMatC= 2.11D-06 BMatP= 2.82D-05
 IDIUse=1 WtCom= 1.00D+00 WtEn= 0.00D+00
 Coeff-Com: -0.185D-02 0.266D-02 0.197D-01 0.411D-01 0.117D+00 0.302D+00
 Coeff-Com:  0.519D+00
 Coeff:     -0.185D-02 0.266D-02 0.197D-01 0.411D-01 0.117D+00 0.302D+00
 Coeff:      0.519D+00
 Gap=     0.165 Goal=   None    Shift=    0.000
 RMSDP=4.41D-05 MaxDP=4.46D-03 DE=-2.17D-05 OVMax= 5.03D-04

 Cycle   8  Pass 1  IDiag  1:
 RMSU=  1.94D-05    CP:  8.07D-01  5.44D-01  7.87D-01  6.79D-01  8.08D-01
                    CP:  7.59D-01  7.37D-01
 E= -1043.20905320633     Delta-E=       -0.000001897593 Rises=F Damp=F
 DIIS: error= 1.17D-05 at cycle   8 NSaved=   8.
 NSaved= 8 IEnMin= 8 EnMin= -1043.20905320633     IErMin= 8 ErrMin= 1.17D-05
 ErrMax= 1.17D-05  0.00D+00 EMaxC= 1.00D-01 BMatC= 1.58D-07 BMatP= 2.11D-06
 IDIUse=1 WtCom= 1.00D+00 WtEn= 0.00D+00
 Coeff-Com: -0.302D-03 0.237D-03 0.229D-02 0.513D-02 0.221D-01 0.769D-01
 Coeff-Com:  0.245D+00 0.649D+00
 Coeff:     -0.302D-03 0.237D-03 0.229D-02 0.513D-02 0.221D-01 0.769D-01
 Coeff:      0.245D+00 0.649D+00
 Gap=     0.165 Goal=   None    Shift=    0.000
 RMSDP=1.15D-05 MaxDP=1.45D-03 DE=-1.90D-06 OVMax= 1.93D-04

 Cycle   9  Pass 1  IDiag  1:
 RMSU=  7.01D-06    CP:  8.07D-01  5.44D-01  7.86D-01  6.80D-01  8.10D-01
                    CP:  7.60D-01  7.69D-01  8.92D-01
 E= -1043.20905333378     Delta-E=       -0.000000127452 Rises=F Damp=F
 DIIS: error= 6.20D-06 at cycle   9 NSaved=   9.
 NSaved= 9 IEnMin= 9 EnMin= -1043.20905333378     IErMin= 9 ErrMin= 6.20D-06
 ErrMax= 6.20D-06  0.00D+00 EMaxC= 1.00D-01 BMatC= 3.20D-08 BMatP= 1.58D-07
 IDIUse=1 WtCom= 1.00D+00 WtEn= 0.00D+00
 Coeff-Com:  0.625D-04-0.191D-03-0.119D-02-0.250D-02-0.285D-02 0.380D-02
 Coeff-Com:  0.639D-01 0.363D+00 0.576D+00
 Coeff:      0.625D-04-0.191D-03-0.119D-02-0.250D-02-0.285D-02 0.380D-02
 Coeff:      0.639D-01 0.363D+00 0.576D+00
 Gap=     0.165 Goal=   None    Shift=    0.000
 RMSDP=6.14D-06 MaxDP=4.29D-04 DE=-1.27D-07 OVMax= 6.53D-05

 Cycle  10  Pass 1  IDiag  1:
 RMSU=  2.74D-06    CP:  8.07D-01  5.44D-01  7.87D-01  6.80D-01  8.12D-01
                    CP:  7.61D-01  7.70D-01  9.33D-01  8.43D-01
 E= -1043.20905336454     Delta-E=       -0.000000030755 Rises=F Damp=F
 DIIS: error= 1.89D-06 at cycle  10 NSaved=  10.
 NSaved=10 IEnMin=10 EnMin= -1043.20905336454     IErMin=10 ErrMin= 1.89D-06
 ErrMax= 1.89D-06  0.00D+00 EMaxC= 1.00D-01 BMatC= 3.08D-09 BMatP= 3.20D-08
 IDIUse=1 WtCom= 1.00D+00 WtEn= 0.00D+00
 Coeff-Com:  0.548D-04-0.116D-03-0.775D-03-0.172D-02-0.308D-02-0.310D-02
 Coeff-Com:  0.165D-01 0.150D+00 0.317D+00 0.526D+00
 Coeff:      0.548D-04-0.116D-03-0.775D-03-0.172D-02-0.308D-02-0.310D-02
 Coeff:      0.165D-01 0.150D+00 0.317D+00 0.526D+00
 Gap=     0.165 Goal=   None    Shift=    0.000
 RMSDP=2.02D-06 MaxDP=1.88D-04 DE=-3.08D-08 OVMax= 2.21D-05

 Cycle  11  Pass 1  IDiag  1:
 RMSU=  1.42D-06    CP:  8.07D-01  5.44D-01  7.86D-01  6.80D-01  8.11D-01
                    CP:  7.63D-01  7.73D-01  9.50D-01  9.25D-01  7.76D-01
 E= -1043.20905336771     Delta-E=       -0.000000003171 Rises=F Damp=F
 DIIS: error= 5.07D-07 at cycle  11 NSaved=  11.
 NSaved=11 IEnMin=11 EnMin= -1043.20905336771     IErMin=11 ErrMin= 5.07D-07
 ErrMax= 5.07D-07  0.00D+00 EMaxC= 1.00D-01 BMatC= 2.67D-10 BMatP= 3.08D-09
 IDIUse=1 WtCom= 1.00D+00 WtEn= 0.00D+00
 Coeff-Com:  0.174D-04-0.278D-04-0.177D-03-0.439D-03-0.104D-02-0.208D-02
 Coeff-Com: -0.278D-02 0.111D-01 0.555D-01 0.253D+00 0.687D+00
 Coeff:      0.174D-04-0.278D-04-0.177D-03-0.439D-03-0.104D-02-0.208D-02
 Coeff:     -0.278D-02 0.111D-01 0.555D-01 0.253D+00 0.687D+00
 Gap=     0.165 Goal=   None    Shift=    0.000
 RMSDP=4.54D-07 MaxDP=2.77D-05 DE=-3.17D-09 OVMax= 1.01D-05

 Cycle  12  Pass 1  IDiag  1:
 RMSU=  2.44D-07    CP:  8.07D-01  5.44D-01  7.87D-01  6.80D-01  8.11D-01
                    CP:  7.63D-01  7.72D-01  9.54D-01  9.31D-01  8.28D-01
                    CP:  8.71D-01
 E= -1043.20905336810     Delta-E=       -0.000000000395 Rises=F Damp=F
 DIIS: error= 1.65D-07 at cycle  12 NSaved=  12.
 NSaved=12 IEnMin=12 EnMin= -1043.20905336810     IErMin=12 ErrMin= 1.65D-07
 ErrMax= 1.65D-07  0.00D+00 EMaxC= 1.00D-01 BMatC= 1.81D-11 BMatP= 2.67D-10
 IDIUse=1 WtCom= 1.00D+00 WtEn= 0.00D+00
 Coeff-Com:  0.374D-05-0.395D-05-0.172D-04-0.594D-04-0.232D-03-0.678D-03
 Coeff-Com: -0.242D-02-0.717D-02-0.154D-02 0.635D-01 0.283D+00 0.665D+00
 Coeff:      0.374D-05-0.395D-05-0.172D-04-0.594D-04-0.232D-03-0.678D-03
 Coeff:     -0.242D-02-0.717D-02-0.154D-02 0.635D-01 0.283D+00 0.665D+00
 Gap=     0.165 Goal=   None    Shift=    0.000
 RMSDP=2.07D-07 MaxDP=1.88D-05 DE=-3.95D-10 OVMax= 2.28D-06

 Cycle  13  Pass 1  IDiag  1:
 RMSU=  8.44D-08    CP:  8.07D-01  5.44D-01  7.87D-01  6.80D-01  8.11D-01
                    CP:  7.63D-01  7.72D-01  9.54D-01  9.41D-01  8.51D-01
                    CP:  9.53D-01  9.88D-01
 E= -1043.20905336812     Delta-E=       -0.000000000015 Rises=F Damp=F
 DIIS: error= 5.53D-08 at cycle  13 NSaved=  13.
 NSaved=13 IEnMin=13 EnMin= -1043.20905336812     IErMin=13 ErrMin= 5.53D-08
 ErrMax= 5.53D-08  0.00D+00 EMaxC= 1.00D-01 BMatC= 2.50D-12 BMatP= 1.81D-11
 IDIUse=1 WtCom= 1.00D+00 WtEn= 0.00D+00
 Coeff-Com: -0.639D-06 0.178D-05 0.171D-04 0.357D-04 0.388D-04 0.772D-05
 Coeff-Com: -0.531D-03-0.443D-02-0.780D-02-0.778D-02 0.317D-01 0.288D+00
 Coeff-Com:  0.700D+00
 Coeff:     -0.639D-06 0.178D-05 0.171D-04 0.357D-04 0.388D-04 0.772D-05
 Coeff:     -0.531D-03-0.443D-02-0.780D-02-0.778D-02 0.317D-01 0.288D+00
 Coeff:      0.700D+00
 Gap=     0.165 Goal=   None    Shift=    0.000
 RMSDP=6.26D-08 MaxDP=5.70D-06 DE=-1.55D-11 OVMax= 1.37D-06

 Cycle  14  Pass 1  IDiag  1:
 RMSU=  4.01D-08    CP:  8.07D-01  5.44D-01  7.87D-01  6.80D-01  8.11D-01
                    CP:  7.63D-01  7.72D-01  9.53D-01  9.43D-01  8.57D-01
                    CP:  9.70D-01  1.07D+00  8.37D-01
 E= -1043.20905336816     Delta-E=       -0.000000000039 Rises=F Damp=F
 DIIS: error= 1.73D-08 at cycle  14 NSaved=  14.
 NSaved=14 IEnMin=14 EnMin= -1043.20905336816     IErMin=14 ErrMin= 1.73D-08
 ErrMax= 1.73D-08  0.00D+00 EMaxC= 1.00D-01 BMatC= 4.06D-13 BMatP= 2.50D-12
 IDIUse=1 WtCom= 1.00D+00 WtEn= 0.00D+00
 Coeff-Com: -0.631D-06 0.129D-05 0.103D-04 0.239D-04 0.377D-04 0.554D-04
 Coeff-Com: -0.729D-04-0.179D-02-0.400D-02-0.101D-01-0.871D-02 0.775D-01
 Coeff-Com:  0.361D+00 0.586D+00
 Coeff:     -0.631D-06 0.129D-05 0.103D-04 0.239D-04 0.377D-04 0.554D-04
 Coeff:     -0.729D-04-0.179D-02-0.400D-02-0.101D-01-0.871D-02 0.775D-01
 Coeff:      0.361D+00 0.586D+00
 Gap=     0.165 Goal=   None    Shift=    0.000
 RMSDP=2.62D-08 MaxDP=3.19D-06 DE=-3.87D-11 OVMax= 2.79D-07

 Cycle  15  Pass 1  IDiag  1:
 RMSU=  1.05D-08    CP:  8.07D-01  5.44D-01  7.87D-01  6.80D-01  8.11D-01
                    CP:  7.63D-01  7.72D-01  9.53D-01  9.45D-01  8.57D-01
                    CP:  9.77D-01  1.08D+00  9.51D-01  8.06D-01
 E= -1043.20905336819     Delta-E=       -0.000000000028 Rises=F Damp=F
 DIIS: error= 5.06D-09 at cycle  15 NSaved=  15.
 NSaved=15 IEnMin=15 EnMin= -1043.20905336819     IErMin=15 ErrMin= 5.06D-09
 ErrMax= 5.06D-09  0.00D+00 EMaxC= 1.00D-01 BMatC= 2.23D-14 BMatP= 4.06D-13
 IDIUse=1 WtCom= 1.00D+00 WtEn= 0.00D+00
 Coeff-Com: -0.158D-06 0.256D-06 0.180D-05 0.492D-05 0.909D-05 0.182D-04
 Coeff-Com:  0.448D-04-0.156D-03-0.540D-03-0.304D-02-0.636D-02-0.670D-02
 Coeff-Com:  0.642D-01 0.220D+00 0.732D+00
 Coeff:     -0.158D-06 0.256D-06 0.180D-05 0.492D-05 0.909D-05 0.182D-04
 Coeff:      0.448D-04-0.156D-03-0.540D-03-0.304D-02-0.636D-02-0.670D-02
 Coeff:      0.642D-01 0.220D+00 0.732D+00
 Gap=     0.165 Goal=   None    Shift=    0.000
 RMSDP=6.87D-09 MaxDP=5.66D-07 DE=-2.77D-11 OVMax= 1.34D-07

 Error on total polarization charges =  0.01989
 SCF Done:  E(RPBE1PBE) =  -1043.20905337     A.U. after   15 cycles
            NFock= 15  Conv=0.69D-08     -V/T= 2.0081
 KE= 1.034791735016D+03 PE=-5.413016368481D+03 EE= 1.850097530116D+03
 --------------------------------------------------------------------
 Variational PCM results
 =======================
 <psi(f)|   H    |psi(f)>                     (a.u.) =   -1043.195809
 <psi(f)|H+V(f)/2|psi(f)>                     (a.u.) =   -1043.209053
 Total free energy in solution:
 - with all non electrostatic terms           (a.u.) =   -1043.191870
 --------------------------------------------------------------------
 (Polarized solute)-Solvent               (kcal/mol) =      -8.31
 --------------------------------------------------------------------
 Cavitation energy                        (kcal/mol) =      34.19
 Dispersion energy                        (kcal/mol) =     -25.46
 Repulsion energy                         (kcal/mol) =       2.05
 Total non electrostatic                  (kcal/mol) =      10.78
 --------------------------------------------------------------------
 Partition over spheres:
 Sphere  on Atom  Surface  Charge   GEl     GCav    GDR
    1      C1       2.25   0.003   -0.01    0.51   -0.25
    2      C2       1.96   0.000    0.00    0.47   -0.21
    3      C3      11.14   0.001   -0.16    1.97   -1.20
    4      C4      17.82  -0.019   -0.44    2.34   -1.85
    5      C5      18.17  -0.009   -0.39    2.38   -1.83
    6      C6      14.31  -0.006   -0.25    2.19   -1.54
    7      C7       4.55  -0.013   -0.03    0.86   -0.53
    8      C8       0.55   0.000    0.00    0.27   -0.04
    9      C9      14.37  -0.021   -0.33    2.39   -1.63
   10      C10      0.90   0.000    0.00    0.30   -0.03
   11      C11     13.83  -0.022   -0.40    2.30   -1.55
   12      C12     17.88  -0.023   -0.49    2.35   -1.90
   13      C13     11.85  -0.014   -0.30    2.01   -1.27
   14      C14      0.22  -0.002    0.00    0.20    0.00
   15      F15     14.01   0.029   -0.17    2.29   -1.63
   16      F16     14.69   0.033   -0.21    2.37   -1.69
   17      F17     15.51   0.036   -0.26    2.47   -1.73
   18      N18      4.43   0.004   -0.03    1.24   -0.45
   19      O19     20.58  -0.067   -3.41    2.91   -2.31
   20      O20     16.16   0.103   -0.90    2.36   -1.77
 Added spheres:    64.60  -0.032   -0.53    0.00    0.00
 --------------------------------------------------------------------
 - cavitation energy not included in the total energy.
 - dispersion energy not included in the total energy.
 - repulsion  energy not included in the total energy.
 After PCM corrections, the energy is  -1043.20905337     a.u.
 --------------------------------------------------------------------
 Leave Link  502 at Fri Oct 20 13:12:41 2017, MaxMem=   196608000 cpu:       675.2
 (Enter /usr/local/g09_d01/l601.exe)
 Copying SCF densities to generalized density rwf, IOpCl= 0 IROHF=0.

 **********************************************************************

            Population analysis using the SCF density.

 **********************************************************************

 Alpha  occ. eigenvalues --  -24.83891 -24.83619 -24.83422 -19.28498 -19.23656
 Alpha  occ. eigenvalues --  -14.43746 -10.49742 -10.38606 -10.31006 -10.30257
 Alpha  occ. eigenvalues --  -10.27809 -10.26420 -10.26358 -10.26116 -10.26053
 Alpha  occ. eigenvalues --  -10.25941 -10.25842 -10.25782 -10.24891 -10.24365
 Alpha  occ. eigenvalues --   -1.35990  -1.27142  -1.26691  -1.15282  -1.05961
 Alpha  occ. eigenvalues --   -0.99854  -0.91090  -0.88713  -0.82182  -0.80697
 Alpha  occ. eigenvalues --   -0.79805  -0.76088  -0.73661  -0.69510  -0.66888
 Alpha  occ. eigenvalues --   -0.66308  -0.63642  -0.62694  -0.62025  -0.61456
 Alpha  occ. eigenvalues --   -0.59337  -0.55867  -0.54144  -0.53329  -0.52536
 Alpha  occ. eigenvalues --   -0.51543  -0.50192  -0.49627  -0.49029  -0.48267
 Alpha  occ. eigenvalues --   -0.47722  -0.47035  -0.46319  -0.45849  -0.45286
 Alpha  occ. eigenvalues --   -0.44660  -0.43567  -0.42942  -0.42384  -0.41836
 Alpha  occ. eigenvalues --   -0.39977  -0.39700  -0.39022  -0.37962  -0.37126
 Alpha  occ. eigenvalues --   -0.35167  -0.34399  -0.31079  -0.28960  -0.28356
 Alpha  occ. eigenvalues --   -0.28191  -0.22140
 Alpha virt. eigenvalues --   -0.05686  -0.03743  -0.02544   0.00653   0.00933
 Alpha virt. eigenvalues --    0.01957   0.02552   0.03461   0.03800   0.04153
 Alpha virt. eigenvalues --    0.04540   0.05050   0.05417   0.05608   0.05859
 Alpha virt. eigenvalues --    0.06519   0.07353   0.07715   0.08217   0.08608
 Alpha virt. eigenvalues --    0.09327   0.09660   0.10326   0.10912   0.11200
 Alpha virt. eigenvalues --    0.11835   0.12360   0.12802   0.12939   0.13305
 Alpha virt. eigenvalues --    0.13805   0.14159   0.14372   0.14766   0.15653
 Alpha virt. eigenvalues --    0.15940   0.16305   0.16449   0.16876   0.17675
 Alpha virt. eigenvalues --    0.17842   0.18419   0.18796   0.19378   0.19993
 Alpha virt. eigenvalues --    0.20095   0.20254   0.20526   0.20772   0.21163
 Alpha virt. eigenvalues --    0.21651   0.22217   0.22400   0.22784   0.22944
 Alpha virt. eigenvalues --    0.23222   0.23626   0.23712   0.24337   0.24531
 Alpha virt. eigenvalues --    0.25087   0.25210   0.25719   0.26626   0.26806
 Alpha virt. eigenvalues --    0.26967   0.27038   0.27314   0.27688   0.27923
 Alpha virt. eigenvalues --    0.28347   0.28758   0.29105   0.29437   0.29491
 Alpha virt. eigenvalues --    0.30162   0.30280   0.30571   0.31305   0.32051
 Alpha virt. eigenvalues --    0.32340   0.32889   0.33224   0.33612   0.34550
 Alpha virt. eigenvalues --    0.35022   0.35620   0.36164   0.36570   0.36798
 Alpha virt. eigenvalues --    0.37210   0.37799   0.38246   0.38433   0.39381
 Alpha virt. eigenvalues --    0.39730   0.39998   0.41184   0.42034   0.43648
 Alpha virt. eigenvalues --    0.44186   0.44517   0.44753   0.45742   0.46450
 Alpha virt. eigenvalues --    0.47690   0.48197   0.48366   0.49582   0.49935
 Alpha virt. eigenvalues --    0.52236   0.53342   0.59237   0.61837   0.62847
 Alpha virt. eigenvalues --    0.63982   0.66691   0.69858   0.70024   0.71182
 Alpha virt. eigenvalues --    0.71289   0.71892   0.72656   0.72934   0.74953
 Alpha virt. eigenvalues --    0.75619   0.76909   0.77143   0.77381   0.78374
 Alpha virt. eigenvalues --    0.78942   0.79643   0.80127   0.80860   0.82055
 Alpha virt. eigenvalues --    0.82630   0.83289   0.84493   0.84827   0.86290
 Alpha virt. eigenvalues --    0.86778   0.88972   0.89607   0.91041   0.92812
 Alpha virt. eigenvalues --    0.93751   0.94230   0.95696   0.96691   0.98289
 Alpha virt. eigenvalues --    0.99038   1.00108   1.02308   1.03167   1.03611
 Alpha virt. eigenvalues --    1.04623   1.06649   1.07707   1.09653   1.10810
 Alpha virt. eigenvalues --    1.12406   1.13309   1.14193   1.15829   1.17318
 Alpha virt. eigenvalues --    1.18025   1.18537   1.19818   1.20151   1.21042
 Alpha virt. eigenvalues --    1.22219   1.22835   1.24462   1.24892   1.25421
 Alpha virt. eigenvalues --    1.26379   1.27165   1.28816   1.29587   1.30485
 Alpha virt. eigenvalues --    1.31072   1.32947   1.33811   1.36627   1.38582
 Alpha virt. eigenvalues --    1.39567   1.40858   1.41483   1.41925   1.42405
 Alpha virt. eigenvalues --    1.44552   1.45331   1.45768   1.46640   1.47817
 Alpha virt. eigenvalues --    1.48736   1.49023   1.50078   1.51165   1.52853
 Alpha virt. eigenvalues --    1.56184   1.59948   1.62103   1.63248   1.64280
 Alpha virt. eigenvalues --    1.64971   1.66592   1.68158   1.68476   1.69322
 Alpha virt. eigenvalues --    1.69513   1.70568   1.72009   1.73444   1.74308
 Alpha virt. eigenvalues --    1.76051   1.77315   1.78361   1.79755   1.81756
 Alpha virt. eigenvalues --    1.82276   1.82919   1.83801   1.84391   1.84861
 Alpha virt. eigenvalues --    1.86529   1.87163   1.87658   1.88110   1.89140
 Alpha virt. eigenvalues --    1.92709   1.93433   1.94188   1.96068   1.96977
 Alpha virt. eigenvalues --    1.98791   1.98979   2.00233   2.01994   2.02346
 Alpha virt. eigenvalues --    2.03396   2.05947   2.06673   2.07560   2.07834
 Alpha virt. eigenvalues --    2.08726   2.09597   2.10013   2.10375   2.12325
 Alpha virt. eigenvalues --    2.14621   2.15943   2.16616   2.18209   2.18536
 Alpha virt. eigenvalues --    2.20405   2.23893   2.24952   2.25811   2.26454
 Alpha virt. eigenvalues --    2.27615   2.29398   2.30297   2.31429   2.34231
 Alpha virt. eigenvalues --    2.35933   2.39608   2.41531   2.45555   2.46741
 Alpha virt. eigenvalues --    2.47635   2.49639   2.53223   2.56803   2.59528
 Alpha virt. eigenvalues --    2.62415   2.63066   2.63920   2.66431   2.67290
 Alpha virt. eigenvalues --    2.68745   2.69803   2.71157   2.74163   2.75265
 Alpha virt. eigenvalues --    2.76484   2.77058   2.79676   2.82285   2.84381
 Alpha virt. eigenvalues --    2.85744   2.86761   2.93410   2.95674   2.99647
 Alpha virt. eigenvalues --    3.02693   3.05529   3.11122   3.16207   3.17421
 Alpha virt. eigenvalues --    3.19809   3.24490   3.28234   3.34410   3.43920
 Alpha virt. eigenvalues --    3.46592   4.18399   4.28437   4.29604   4.31270
 Alpha virt. eigenvalues --    4.33068   4.36286   4.37382   4.41789   4.43061
 Alpha virt. eigenvalues --    4.44068   4.50339   4.50666   4.53814   4.62011
 Alpha virt. eigenvalues --    4.75625   4.78320   4.83526   5.62500   6.02892
 Alpha virt. eigenvalues --    6.79147
          Condensed to atoms (all electrons):
               1          2          3          4          5          6
     1  C    9.841635  -2.088985   0.551435   0.110760  -0.665884  -0.870362
     2  C   -2.088985  15.952252  -3.605693  -1.424884   0.871885  -2.180205
     3  C    0.551435  -3.605693  12.053426  -3.256155  -0.023592  -0.054291
     4  C    0.110760  -1.424884  -3.256155  11.062352  -0.236896   0.516457
     5  C   -0.665884   0.871885  -0.023592  -0.236896   8.524852  -1.818731
     6  C   -0.870362  -2.180205  -0.054291   0.516457  -1.818731  10.073614
     7  C   -0.342206  -0.844346  -0.127644   0.273702  -0.839295  -0.046442
     8  C    0.127572   0.872015  -0.609288  -1.167523   0.196343  -0.157559
     9  C   -2.150568   2.638356  -1.052927   0.922222  -0.019961  -0.267806
    10  C    0.063101  -0.355776   0.222819  -0.083737   0.040949  -0.092788
    11  C    0.120869   0.046243   0.104450   0.059935   0.003699  -0.013948
    12  C    0.043807  -0.643939   0.260026  -0.226865  -0.029100   0.064044
    13  C    1.491082  -2.734529   1.123960  -0.355491  -0.034922   0.459394
    14  C   -0.026390  -0.112720   0.006780   0.011995   0.000000   0.006224
    15  F    0.001136   0.001499   0.000236   0.000031   0.000001   0.000029
    16  F    0.000093   0.000078   0.001070   0.000121   0.000003  -0.000007
    17  F   -0.000066   0.000296  -0.000835  -0.000099   0.000004  -0.000021
    18  N   -0.344983   0.333892  -0.046753   0.040079  -0.017890   0.037371
    19  O    0.062125  -0.045036   0.001435  -0.007156   0.136911   0.025847
    20  O    0.023558  -0.248368  -0.019358  -0.014909   0.052285   0.074339
    21  H    0.055756  -0.052468   0.315587  -0.001001   0.002178  -0.010216
    22  H   -0.007200  -0.012801  -0.012164   0.297548   0.022754   0.017699
    23  H    0.020478   0.000584   0.013668   0.004510   0.265508   0.002012
    24  H   -0.034820   0.031170  -0.001187  -0.004494   0.035288   0.295687
    25  H    0.006054  -0.005520   0.002135   0.000144   0.000148  -0.001319
    26  H   -0.000114   0.001068  -0.000767  -0.000041   0.000002  -0.000002
    27  H    0.000728   0.002102  -0.001557  -0.000546  -0.000102   0.000022
    28  H   -0.026596  -0.063114   0.047876   0.015966  -0.002579   0.007405
    29  H    0.017022  -0.094950   0.055658   0.004899   0.000477   0.006636
    30  H    0.026216   0.004501   0.004844   0.000997  -0.011562   0.001323
               7          8          9         10         11         12
     1  C   -0.342206   0.127572  -2.150568   0.063101   0.120869   0.043807
     2  C   -0.844346   0.872015   2.638356  -0.355776   0.046243  -0.643939
     3  C   -0.127644  -0.609288  -1.052927   0.222819   0.104450   0.260026
     4  C    0.273702  -1.167523   0.922222  -0.083737   0.059935  -0.226865
     5  C   -0.839295   0.196343  -0.019961   0.040949   0.003699  -0.029100
     6  C   -0.046442  -0.157559  -0.267806  -0.092788  -0.013948   0.064044
     7  C    7.479802  -0.333460  -0.277378  -0.031103   0.029016   0.046305
     8  C   -0.333460  19.018207  -7.871096  -0.022541  -2.075374   0.739706
     9  C   -0.277378  -7.871096  29.986546  -3.527526  -5.252045  -1.564218
    10  C   -0.031103  -0.022541  -3.527526  13.594513  -1.132599   0.705503
    11  C    0.029016  -2.075374  -5.252045  -1.132599  15.077457  -1.440837
    12  C    0.046305   0.739706  -1.564218   0.705503  -1.440837  10.020821
    13  C    0.251171  -0.790957  -7.392918  -1.120000   0.727529  -1.484364
    14  C   -0.014534  -1.792631   1.717678  -1.557166  -0.196254  -0.343700
    15  F    0.000175   0.171005  -0.035002  -0.120789  -0.033577   0.009822
    16  F    0.000012   0.035140  -0.050684   0.063831  -0.095653   0.040421
    17  F    0.000019   0.034547  -0.051895   0.266523  -0.221282   0.018650
    18  N   -0.076546  -0.906294   1.009016  -0.017542   0.035424   0.028137
    19  O   -0.115714   0.012960  -0.013271   0.000557   0.000098   0.000509
    20  O    0.295102   0.120931  -0.104141   0.014191  -0.001459   0.000677
    21  H    0.007929  -0.048395  -0.044580  -0.010815   0.001148  -0.003878
    22  H    0.000303   0.003604   0.000402   0.000331  -0.000187  -0.000707
    23  H    0.002813   0.000833   0.000163  -0.000008   0.000001   0.000002
    24  H   -0.027895   0.002627   0.000328   0.000047  -0.000001  -0.000113
    25  H    0.003272   0.113222   0.053291   0.057209   0.017557  -0.010575
    26  H    0.000003   0.021034   0.037050   0.079732   0.193187   0.004472
    27  H    0.000031  -0.028117  -0.005389   0.007561   0.049877   0.253805
    28  H   -0.003389  -0.037631   0.133723   0.026886  -0.009689  -0.033023
    29  H   -0.014108  -0.035194  -0.025427   0.033243   0.004030  -0.004957
    30  H   -0.002788  -0.000604  -0.000116  -0.000042   0.000002  -0.000016
              13         14         15         16         17         18
     1  C    1.491082  -0.026390   0.001136   0.000093  -0.000066  -0.344983
     2  C   -2.734529  -0.112720   0.001499   0.000078   0.000296   0.333892
     3  C    1.123960   0.006780   0.000236   0.001070  -0.000835  -0.046753
     4  C   -0.355491   0.011995   0.000031   0.000121  -0.000099   0.040079
     5  C   -0.034922   0.000000   0.000001   0.000003   0.000004  -0.017890
     6  C    0.459394   0.006224   0.000029  -0.000007  -0.000021   0.037371
     7  C    0.251171  -0.014534   0.000175   0.000012   0.000019  -0.076546
     8  C   -0.790957  -1.792631   0.171005   0.035140   0.034547  -0.906294
     9  C   -7.392918   1.717678  -0.035002  -0.050684  -0.051895   1.009016
    10  C   -1.120000  -1.557166  -0.120789   0.063831   0.266523  -0.017542
    11  C    0.727529  -0.196254  -0.033577  -0.095653  -0.221282   0.035424
    12  C   -1.484364  -0.343700   0.009822   0.040421   0.018650   0.028137
    13  C   15.084953   0.112997   0.015204   0.002192  -0.019644  -0.387438
    14  C    0.112997   6.440413   0.087407   0.114538   0.105475   0.013500
    15  F    0.015204   0.087407   9.298570  -0.033952  -0.040760  -0.000700
    16  F    0.002192   0.114538  -0.033952   9.256902  -0.053372   0.000474
    17  F   -0.019644   0.105475  -0.040760  -0.053372   9.228243  -0.000527
    18  N   -0.387438   0.013500  -0.000700   0.000474  -0.000527   7.616628
    19  O    0.008036  -0.000040   0.000000   0.000000   0.000000  -0.007117
    20  O    0.051827   0.000593  -0.000002   0.000000  -0.000001  -0.004766
    21  H    0.093173  -0.000766   0.000000   0.000000   0.000000  -0.004391
    22  H   -0.001890   0.000005   0.000000   0.000000   0.000000  -0.000820
    23  H   -0.000581   0.000000   0.000000   0.000000   0.000000   0.000225
    24  H   -0.001312   0.000000   0.000000   0.000000   0.000000  -0.001043
    25  H    0.067990  -0.000698   0.006893   0.000120   0.000031  -0.015882
    26  H   -0.021757  -0.015926   0.000273   0.002157   0.000005  -0.000192
    27  H    0.026375   0.004413   0.000014   0.000028   0.000007  -0.000660
    28  H    0.226199   0.008173   0.000000   0.000000   0.000002   0.008256
    29  H    0.023463   0.002605   0.000004   0.000000  -0.000001   0.202752
    30  H   -0.000102  -0.000002   0.000000   0.000000   0.000000  -0.000666
              19         20         21         22         23         24
     1  C    0.062125   0.023558   0.055756  -0.007200   0.020478  -0.034820
     2  C   -0.045036  -0.248368  -0.052468  -0.012801   0.000584   0.031170
     3  C    0.001435  -0.019358   0.315587  -0.012164   0.013668  -0.001187
     4  C   -0.007156  -0.014909  -0.001001   0.297548   0.004510  -0.004494
     5  C    0.136911   0.052285   0.002178   0.022754   0.265508   0.035288
     6  C    0.025847   0.074339  -0.010216   0.017699   0.002012   0.295687
     7  C   -0.115714   0.295102   0.007929   0.000303   0.002813  -0.027895
     8  C    0.012960   0.120931  -0.048395   0.003604   0.000833   0.002627
     9  C   -0.013271  -0.104141  -0.044580   0.000402   0.000163   0.000328
    10  C    0.000557   0.014191  -0.010815   0.000331  -0.000008   0.000047
    11  C    0.000098  -0.001459   0.001148  -0.000187   0.000001  -0.000001
    12  C    0.000509   0.000677  -0.003878  -0.000707   0.000002  -0.000113
    13  C    0.008036   0.051827   0.093173  -0.001890  -0.000581  -0.001312
    14  C   -0.000040   0.000593  -0.000766   0.000005   0.000000   0.000000
    15  F    0.000000  -0.000002   0.000000   0.000000   0.000000   0.000000
    16  F    0.000000   0.000000   0.000000   0.000000   0.000000   0.000000
    17  F    0.000000  -0.000001   0.000000   0.000000   0.000000   0.000000
    18  N   -0.007117  -0.004766  -0.004391  -0.000820   0.000225  -0.001043
    19  O    8.618566  -0.150930   0.000036   0.000007   0.000001   0.005205
    20  O   -0.150930   8.414629   0.000006  -0.000001   0.000026  -0.000244
    21  H    0.000036   0.000006   0.459057  -0.003399  -0.000133   0.000012
    22  H    0.000007  -0.000001  -0.003399   0.458229  -0.002917  -0.000140
    23  H    0.000001   0.000026  -0.000133  -0.002917   0.457094  -0.003070
    24  H    0.005205  -0.000244   0.000012  -0.000140  -0.003070   0.443333
    25  H   -0.000002  -0.000342   0.000001   0.000000   0.000000   0.000000
    26  H    0.000000   0.000000   0.000000   0.000000   0.000000   0.000000
    27  H    0.000000   0.000000  -0.000009   0.000000   0.000000   0.000000
    28  H    0.000003   0.000043  -0.001944   0.000000   0.000000   0.000000
    29  H    0.002212   0.052366  -0.000023   0.000002   0.000000  -0.000003
    30  H    0.141971   0.008559   0.000000   0.000000   0.000000   0.000085
              25         26         27         28         29         30
     1  C    0.006054  -0.000114   0.000728  -0.026596   0.017022   0.026216
     2  C   -0.005520   0.001068   0.002102  -0.063114  -0.094950   0.004501
     3  C    0.002135  -0.000767  -0.001557   0.047876   0.055658   0.004844
     4  C    0.000144  -0.000041  -0.000546   0.015966   0.004899   0.000997
     5  C    0.000148   0.000002  -0.000102  -0.002579   0.000477  -0.011562
     6  C   -0.001319  -0.000002   0.000022   0.007405   0.006636   0.001323
     7  C    0.003272   0.000003   0.000031  -0.003389  -0.014108  -0.002788
     8  C    0.113222   0.021034  -0.028117  -0.037631  -0.035194  -0.000604
     9  C    0.053291   0.037050  -0.005389   0.133723  -0.025427  -0.000116
    10  C    0.057209   0.079732   0.007561   0.026886   0.033243  -0.000042
    11  C    0.017557   0.193187   0.049877  -0.009689   0.004030   0.000002
    12  C   -0.010575   0.004472   0.253805  -0.033023  -0.004957  -0.000016
    13  C    0.067990  -0.021757   0.026375   0.226199   0.023463  -0.000102
    14  C   -0.000698  -0.015926   0.004413   0.008173   0.002605  -0.000002
    15  F    0.006893   0.000273   0.000014   0.000000   0.000004   0.000000
    16  F    0.000120   0.002157   0.000028   0.000000   0.000000   0.000000
    17  F    0.000031   0.000005   0.000007   0.000002  -0.000001   0.000000
    18  N   -0.015882  -0.000192  -0.000660   0.008256   0.202752  -0.000666
    19  O   -0.000002   0.000000   0.000000   0.000003   0.002212   0.141971
    20  O   -0.000342   0.000000   0.000000   0.000043   0.052366   0.008559
    21  H    0.000001   0.000000  -0.000009  -0.001944  -0.000023   0.000000
    22  H    0.000000   0.000000   0.000000   0.000000   0.000002   0.000000
    23  H    0.000000   0.000000   0.000000   0.000000   0.000000   0.000000
    24  H    0.000000   0.000000   0.000000   0.000000  -0.000003   0.000085
    25  H    0.439495  -0.000107   0.000013  -0.000122   0.002010   0.000000
    26  H   -0.000107   0.442430  -0.003122  -0.000107   0.000000   0.000000
    27  H    0.000013  -0.003122   0.450517  -0.002984   0.000002   0.000000
    28  H   -0.000122  -0.000107  -0.002984   0.446964  -0.000066   0.000000
    29  H    0.002010   0.000000   0.000002  -0.000066   0.259860  -0.000007
    30  H    0.000000   0.000000   0.000000   0.000000  -0.000007   0.253389
 Mulliken charges:
               1
     1  C   -0.005254
     2  C   -0.242607
     3  C    0.046806
     4  C   -0.541920
     5  C   -0.452773
     6  C   -0.074406
     7  C    0.707193
     8  C    0.406919
     9  C   -0.791824
    10  C   -1.104564
    11  C    0.002386
    12  C   -0.450416
    13  C    0.580360
    14  C    1.428033
    15  F   -0.327517
    16  F   -0.283513
    17  F   -0.265300
    18  N   -0.491544
    19  O   -0.677210
    20  O   -0.564612
    21  H    0.247134
    22  H    0.241342
    23  H    0.238793
    24  H    0.260540
    25  H    0.264982
    26  H    0.260721
    27  H    0.246992
    28  H    0.259748
    29  H    0.507493
    30  H    0.574017
 Sum of Mulliken charges =   0.00000
 Mulliken charges with hydrogens summed into heavy atoms:
               1
     1  C   -0.005254
     2  C   -0.242607
     3  C    0.293940
     4  C   -0.300578
     5  C   -0.213980
     6  C    0.186134
     7  C    0.707193
     8  C    0.406919
     9  C   -0.526842
    10  C   -1.104564
    11  C    0.263107
    12  C   -0.203424
    13  C    0.840108
    14  C    1.428033
    15  F   -0.327517
    16  F   -0.283513
    17  F   -0.265300
    18  N    0.015949
    19  O   -0.103193
    20  O   -0.564612
 Electronic spatial extent (au):  <R**2>=           7282.5761
 Charge=              0.0000 electrons
 Dipole moment (field-independent basis, Debye):
    X=             -4.4434    Y=              0.0220    Z=             -0.7998  Tot=              4.5149
 Quadrupole moment (field-independent basis, Debye-Ang):
   XX=           -118.6364   YY=            -99.3120   ZZ=           -112.6448
   XY=              1.1446   XZ=              1.8658   YZ=              5.1018
 Traceless Quadrupole moment (field-independent basis, Debye-Ang):
   XX=             -8.4387   YY=             10.8858   ZZ=             -2.4471
   XY=              1.1446   XZ=              1.8658   YZ=              5.1018
 Octapole moment (field-independent basis, Debye-Ang**2):
  XXX=             23.0579  YYY=             -0.0617  ZZZ=             18.6131  XYY=             -6.9034
  XXY=             37.0059  XXZ=            -16.1626  XZZ=              4.4813  YZZ=             11.1606
  YYZ=             38.4389  XYZ=            -11.8885
 Hexadecapole moment (field-independent basis, Debye-Ang**3):
 XXXX=          -5047.3913 YYYY=          -2861.8842 ZZZZ=           -809.5563 XXXY=           1437.5366
 XXXZ=           -264.1004 YYYX=           1262.3790 YYYZ=            146.9298 ZZZX=           -363.5975
 ZZZY=             40.5091 XXYY=          -1322.2315 XXZZ=           -872.4297 YYZZ=           -643.8993
 XXYZ=              2.0880 YYXZ=           -208.6674 ZZXY=            436.3721
 N-N= 1.484918049981D+03 E-N=-5.413016368895D+03  KE= 1.034791735016D+03
 No NMR shielding tensors so no spin-rotation constants.
 Leave Link  601 at Fri Oct 20 13:12:42 2017, MaxMem=   196608000 cpu:         0.3
 (Enter /usr/local/g09_d01/l602.exe)
 FitSet:  NAtFit=    30 NAtPot=    30 NAtFrz=     0 MDM=    34 TotChg=   0.00000
 Breneman (CHELPG) radii used.
 Generate Potential Derived Charges using the Breneman model, NDens= 1.
 Grid spacing= 0.300 Box extension= 2.800
 NStep X,Y,Z=   51     49     37   Total possible points=       92463
 Number of Points to Fit=   18265

 **********************************************************************

            Electrostatic Properties Using The SCF Density

 **********************************************************************

       Atomic Center    1 is at  -2.506084  2.181826 -0.131759
       Atomic Center    2 is at  -1.809207  0.983127 -0.460586
       Atomic Center    3 is at  -2.290014  0.219875 -1.544215
       Atomic Center    4 is at  -3.417109  0.607503 -2.246547
       Atomic Center    5 is at  -4.119035  1.769328 -1.906762
       Atomic Center    6 is at  -3.651035  2.544232 -0.861638
       Atomic Center    7 is at  -2.029429  3.051834  0.947044
       Atomic Center    8 is at  -0.021231 -0.613158  0.191449
       Atomic Center    9 is at   1.379329 -0.613158  0.191449
       Atomic Center   10 is at   2.076159 -1.816398  0.191449
       Atomic Center   11 is at   1.399177 -3.036051  0.172538
       Atomic Center   12 is at   0.008070 -3.033908  0.173494
       Atomic Center   13 is at  -0.701341 -1.837144  0.194601
       Atomic Center   14 is at   3.577948 -1.822946  0.233434
       Atomic Center   15 is at   4.107788 -0.615116 -0.027700
       Atomic Center   16 is at   4.099710 -2.688891 -0.658465
       Atomic Center   17 is at   4.038973 -2.199485  1.445761
       Atomic Center   18 is at  -0.691517  0.613785  0.244638
       Atomic Center   19 is at  -2.853692  4.077879  1.223614
       Atomic Center   20 is at  -0.991279  2.900979  1.580909
       Atomic Center   21 is at  -1.748432 -0.669569 -1.847980
       Atomic Center   22 is at  -3.749544 -0.002191 -3.083428
       Atomic Center   23 is at  -5.004919  2.065486 -2.460013
       Atomic Center   24 is at  -4.164530  3.459608 -0.587033
       Atomic Center   25 is at   1.914182  0.331706  0.181688
       Atomic Center   26 is at   1.952385 -3.970253  0.160540
       Atomic Center   27 is at  -0.533159 -3.976207  0.175726
       Atomic Center   28 is at  -1.786560 -1.847753  0.234920
       Atomic Center   29 is at  -0.338497  1.338155  0.867998
       Atomic Center   30 is at  -2.499325  4.559284  1.988467
   18265 points will be used for fitting atomic charges
 Fitting point charges to electrostatic potential
 Charges from ESP fit, RMS=   0.00403 RRMS=   0.29870:
 ESP charges:
               1
     1  C   -0.305853
     2  C    0.542987
     3  C   -0.272946
     4  C   -0.022082
     5  C   -0.226969
     6  C   -0.030072
     7  C    0.797544
     8  C    0.491966
     9  C   -0.264871
    10  C   -0.031881
    11  C   -0.193376
    12  C   -0.058637
    13  C   -0.211975
    14  C    0.674823
    15  F   -0.226742
    16  F   -0.243630
    17  F   -0.246523
    18  N   -0.884821
    19  O   -0.655302
    20  O   -0.663264
    21  H    0.116775
    22  H    0.119777
    23  H    0.131459
    24  H    0.133443
    25  H    0.160761
    26  H    0.152233
    27  H    0.122048
    28  H    0.130854
    29  H    0.480634
    30  H    0.483639
 Sum of ESP charges =   0.00000
 ESP charges with hydrogens summed into heavy atoms:
               1
     1  C   -0.305853
     2  C    0.542987
     3  C   -0.156171
     4  C    0.097695
     5  C   -0.095510
     6  C    0.103371
     7  C    0.797544
     8  C    0.491966
     9  C   -0.104110
    10  C   -0.031881
    11  C   -0.041143
    12  C    0.063411
    13  C   -0.081121
    14  C    0.674823
    15  F   -0.226742
    16  F   -0.243630
    17  F   -0.246523
    18  N   -0.404187
    19  O   -0.171663
    20  O   -0.663264
 Charge=   0.00000 Dipole=    -4.6014     0.0674    -0.8323 Tot=     4.6766
 -----------------------------------------------------------------

              Electrostatic Properties (Atomic Units)

 -----------------------------------------------------------------
    Center     Electric         -------- Electric Field --------
               Potential          X             Y             Z
 -----------------------------------------------------------------
    1 Atom    -14.707095
    2 Atom    -14.661156
    3 Atom    -14.720770
    4 Atom    -14.710946
    5 Atom    -14.725530
    6 Atom    -14.714889
    7 Atom    -14.585071
    8 Atom    -14.667042
    9 Atom    -14.709830
   10 Atom    -14.697303
   11 Atom    -14.710481
   12 Atom    -14.707094
   13 Atom    -14.709541
   14 Atom    -14.471209
   15 Atom    -26.492200
   16 Atom    -26.495783
   17 Atom    -26.498973
   18 Atom    -18.292936
   19 Atom    -22.230368
   20 Atom    -22.299126
   21 Atom     -1.078157
   22 Atom     -1.077006
   23 Atom     -1.084118
   24 Atom     -1.083815
   25 Atom     -1.070218
   26 Atom     -1.072699
   27 Atom     -1.071162
   28 Atom     -1.069788
   29 Atom     -1.004414
   30 Atom     -0.912010
 -----------------------------------------------------------------
 Leave Link  602 at Fri Oct 20 13:12:47 2017, MaxMem=   196608000 cpu:         5.7
 (Enter /usr/local/g09_d01/l9999.exe)
 1\1\GINC-NODE3\SP\RPBE1PBE\6-31+G(d)\C14H10F3N1O2\DCASE\20-Oct-2017\0\
 \#PBE1PBE/6-31+G(d) density=current FormCheck=All SCRF=(PCM,Read,G03De
 faults) #Pop=ChelpG nosymm\\Charge density of molecule 1\\0,1\C,0,-2.5
 06084,2.181826,-0.131759\C,0,-1.809207,0.983127,-0.460586\C,0,-2.29001
 4,0.219875,-1.544215\C,0,-3.417109,0.607503,-2.246547\C,0,-4.119035,1.
 769328,-1.906762\C,0,-3.651035,2.544232,-0.861638\C,0,-2.029429,3.0518
 34,0.947044\C,0,-0.021231,-0.613158,0.191449\C,0,1.379329,-0.613158,0.
 191449\C,0,2.076159,-1.816398,0.191449\C,0,1.399177,-3.036051,0.172538
 \C,0,0.00807,-3.033908,0.173494\C,0,-0.701341,-1.837144,0.194601\C,0,3
 .577948,-1.822946,0.233434\F,0,4.107788,-0.615116,-0.0277\F,0,4.09971,
 -2.688891,-0.658465\F,0,4.038973,-2.199485,1.445761\N,0,-0.691517,0.61
 3785,0.244638\O,0,-2.853692,4.077879,1.223614\O,0,-0.991279,2.900979,1
 .580909\H,0,-1.748432,-0.669569,-1.84798\H,0,-3.749544,-0.002191,-3.08
 3428\H,0,-5.004919,2.065486,-2.460013\H,0,-4.16453,3.459608,-0.587033\
 H,0,1.914182,0.331706,0.181688\H,0,1.952385,-3.970253,0.16054\H,0,-0.5
 33159,-3.976207,0.175726\H,0,-1.78656,-1.847753,0.23492\H,0,-0.338497,
 1.338155,0.867998\H,0,-2.499325,4.559284,1.988467\\Version=ES64L-G09Re
 vD.01\HF=-1043.2090534\RMSD=6.871e-09\Dipole=-1.7481676,0.0086446,-0.3
 14673\Quadrupole=-6.2739695,8.093311,-1.8193415,0.8509729,1.3871802,3.
 7930326\PG=C01 [X(C14H10F3N1O2)]\\@


 THE VALUE OF PHILOSOPHY IS, IN FACT, TO BE SOUGHT LARGELY IN ITS
 VERY UNCERTAINTY.  THE MAN WHO HAS NO TINCTURE OF PHILOSOPHY GOES
 THROUGH LIFE IMPRISONED IN THE PREJUDICES DERIVED FROM COMMON SENSE,
 FROM THE HABITUAL BELIEFS OF HIS AGE OR HIS NATION, AND FROM
 CONVICTIONS WHICH HAVE GROWN UP IN HIS MIND WITHOUT THE CO-OPERATION
 OR CONSENT OF HIS DELIBERATE REASON.  TO SUCH A MAN THE WORLD TENDS
 TO BE DEFINITE, FINITE, OBVIOUS; COMMON OBJECTS ROUSE NO QUESTIONS,
 AND UNFAMILIAR POSSIBILITIES ARE CONTEMPTUOUSLY REJECTED.

                             -- BERTRAND RUSSELL
 Job cpu time:       0 days  0 hours 11 minutes 31.1 seconds.
 File lengths (MBytes):  RWF=    197 Int=      0 D2E=      0 Chk=      8 Scr=      1
 Normal termination of Gaussian 09 at Fri Oct 20 13:12:48 2017.
