 Entering Gaussian System, Link 0=/usr/local/g09_d01/g09
 Input=act_mult2.com
 Output=act_mult2.log
 Initial command:
 /usr/local/g09_d01/l1.exe "/tmp/696468.1.all.q/Gau-22494.inp" -scrdir="/tmp/696468.1.all.q/"
 Entering Link 1 = /usr/local/g09_d01/l1.exe PID=     22496.
  
 Copyright (c) 1988,1990,1992,1993,1995,1998,2003,2009,2013,
            Gaussian, Inc.  All Rights Reserved.
  
 This is part of the Gaussian(R) 09 program.  It is based on
 the Gaussian(R) 03 system (copyright 2003, Gaussian, Inc.),
 the Gaussian(R) 98 system (copyright 1998, Gaussian, Inc.),
 the Gaussian(R) 94 system (copyright 1995, Gaussian, Inc.),
 the Gaussian 92(TM) system (copyright 1992, Gaussian, Inc.),
 the Gaussian 90(TM) system (copyright 1990, Gaussian, Inc.),
 the Gaussian 88(TM) system (copyright 1988, Gaussian, Inc.),
 the Gaussian 86(TM) system (copyright 1986, Carnegie Mellon
 University), and the Gaussian 82(TM) system (copyright 1983,
 Carnegie Mellon University). Gaussian is a federally registered
 trademark of Gaussian, Inc.
  
 This software contains proprietary and confidential information,
 including trade secrets, belonging to Gaussian, Inc.
  
 This software is provided under written license and may be
 used, copied, transmitted, or stored only in accord with that
 written license.
  
 The following legend is applicable only to US Government
 contracts under FAR:
  
                    RESTRICTED RIGHTS LEGEND
  
 Use, reproduction and disclosure by the US Government is
 subject to restrictions as set forth in subparagraphs (a)
 and (c) of the Commercial Computer Software - Restricted
 Rights clause in FAR 52.227-19.
  
 Gaussian, Inc.
 340 Quinnipiac St., Bldg. 40, Wallingford CT 06492
  
  
 ---------------------------------------------------------------
 Warning -- This program may not be used in any manner that
 competes with the business of Gaussian, Inc. or will provide
 assistance to any competitor of Gaussian, Inc.  The licensee
 of this program is prohibited from giving any competitor of
 Gaussian, Inc. access to this program.  By using this program,
 the user acknowledges that Gaussian, Inc. is engaged in the
 business of creating and licensing software in the field of
 computational chemistry and represents and warrants to the
 licensee that it is not a competitor of Gaussian, Inc. and that
 it will not use this program in any manner prohibited above.
 ---------------------------------------------------------------
  

 Cite this work as:
 Gaussian 09, Revision D.01,
 M. J. Frisch, G. W. Trucks, H. B. Schlegel, G. E. Scuseria, 
 M. A. Robb, J. R. Cheeseman, G. Scalmani, V. Barone, B. Mennucci, 
 G. A. Petersson, H. Nakatsuji, M. Caricato, X. Li, H. P. Hratchian, 
 A. F. Izmaylov, J. Bloino, G. Zheng, J. L. Sonnenberg, M. Hada, 
 M. Ehara, K. Toyota, R. Fukuda, J. Hasegawa, M. Ishida, T. Nakajima, 
 Y. Honda, O. Kitao, H. Nakai, T. Vreven, J. A. Montgomery, Jr., 
 J. E. Peralta, F. Ogliaro, M. Bearpark, J. J. Heyd, E. Brothers, 
 K. N. Kudin, V. N. Staroverov, T. Keith, R. Kobayashi, J. Normand, 
 K. Raghavachari, A. Rendell, J. C. Burant, S. S. Iyengar, J. Tomasi, 
 M. Cossi, N. Rega, J. M. Millam, M. Klene, J. E. Knox, J. B. Cross, 
 V. Bakken, C. Adamo, J. Jaramillo, R. Gomperts, R. E. Stratmann, 
 O. Yazyev, A. J. Austin, R. Cammi, C. Pomelli, J. W. Ochterski, 
 R. L. Martin, K. Morokuma, V. G. Zakrzewski, G. A. Voth, 
 P. Salvador, J. J. Dannenberg, S. Dapprich, A. D. Daniels, 
 O. Farkas, J. B. Foresman, J. V. Ortiz, J. Cioslowski, 
 and D. J. Fox, Gaussian, Inc., Wallingford CT, 2013.
 
 ******************************************
 Gaussian 09:  ES64L-G09RevD.01 24-Apr-2013
                20-Oct-2017 
 ******************************************
 %mem=1500MB
 %Nprocs= 1
 Will use up to    1 processors via shared memory.
 %rwf=a,1800MB,b,1800MB,c,1800MB,d,7200MB,e,7200MB,f,7200MB,g,7200MB,h,7200MB,j,1
 4400MB
 %nosave
 %chk=obs
 ----------------------------------------------------------------------
 #PBE1PBE/6-31+G(d) density=current FormCheck=All SCRF=(PCM,Read,G03Def
 aults) #Pop=ChelpG nosymm
 ----------------------------------------------------------------------
 1/30=1,38=1,40=2/1;
 2/12=2,15=1,17=6,18=5,40=1/2;
 3/5=1,6=6,7=11,11=2,16=1,25=1,30=1,70=302203,72=1,74=-13/1,2,3;
 4//1;
 5/5=2,38=5/2;
 6/7=2,8=2,9=2,10=2,15=8,20=3,22=-1,28=1/1,2;
 99/5=1,9=1/99;
 Leave Link    1 at Fri Oct 20 13:12:48 2017, MaxMem=   196608000 cpu:         0.1
 (Enter /usr/local/g09_d01/l101.exe)
 ----------------------------
 Charge density of molecule 1
 ----------------------------
 Symbolic Z-matrix:
 Charge =  0 Multiplicity = 1
 C                    -2.4377    2.24239   0.11619 
 C                    -1.86531   0.96397   0.38477 
 C                    -2.48025   0.16542   1.37086 
 C                    -3.62398   0.58991   2.02381 
 C                    -4.20972   1.82612   1.73196 
 C                    -3.60377   2.63943   0.79222 
 C                    -1.8066    3.16285  -0.83473 
 C                    -0.06986  -0.66224  -0.20693 
 C                     1.33192  -0.66224  -0.20693 
 C                     2.03033  -1.86325  -0.20693 
 C                     1.35617  -3.085    -0.19207 
 C                    -0.03416  -3.0839   -0.20248 
 C                    -0.74676  -1.88832  -0.2237 
 C                     3.53268  -1.86994  -0.19459 
 F                     4.01774  -2.37468   0.96013 
 F                     4.035    -2.63597  -1.18489 
 F                     4.0586   -0.64162  -0.33793 
 N                    -0.72955   0.56737  -0.27553 
 O                    -2.49346   4.30197  -1.02306 
 O                    -0.75119   2.96755  -1.42689 
 H                    -2.03081  -0.78227   1.64503 
 H                    -4.06188  -0.05215   2.78449 
 H                    -5.11077   2.14958   2.2438 
 H                    -4.02067   3.61434   0.56326 
 H                     1.8672    0.28251  -0.20228 
 H                     1.91113  -4.01832  -0.18601 
 H                    -0.57442  -4.02664  -0.21745 
 H                    -1.83032  -1.90529  -0.28724 
 H                    -0.28918   1.31294  -0.81313 
 H                    -2.03798   4.857    -1.67547 
 
 NAtoms=     30 NQM=       30 NQMF=       0 NMMI=      0 NMMIF=      0
                NMic=       0 NMicF=      0.
                    Isotopes and Nuclear Properties:
 (Nuclear quadrupole moments (NQMom) in fm**2, nuclear magnetic moments (NMagM)
  in nuclear magnetons)

  Atom         1           2           3           4           5           6           7           8           9          10
 IAtWgt=          12          12          12          12          12          12          12          12          12          12
 AtmWgt=  12.0000000  12.0000000  12.0000000  12.0000000  12.0000000  12.0000000  12.0000000  12.0000000  12.0000000  12.0000000
 NucSpn=           0           0           0           0           0           0           0           0           0           0
 AtZEff=   0.0000000   0.0000000   0.0000000   0.0000000   0.0000000   0.0000000   0.0000000   0.0000000   0.0000000   0.0000000
 NQMom=    0.0000000   0.0000000   0.0000000   0.0000000   0.0000000   0.0000000   0.0000000   0.0000000   0.0000000   0.0000000
 NMagM=    0.0000000   0.0000000   0.0000000   0.0000000   0.0000000   0.0000000   0.0000000   0.0000000   0.0000000   0.0000000
 AtZNuc=   6.0000000   6.0000000   6.0000000   6.0000000   6.0000000   6.0000000   6.0000000   6.0000000   6.0000000   6.0000000

  Atom        11          12          13          14          15          16          17          18          19          20
 IAtWgt=          12          12          12          12          19          19          19          14          16          16
 AtmWgt=  12.0000000  12.0000000  12.0000000  12.0000000  18.9984033  18.9984033  18.9984033  14.0030740  15.9949146  15.9949146
 NucSpn=           0           0           0           0           1           1           1           2           0           0
 AtZEff=   0.0000000   0.0000000   0.0000000   0.0000000   0.0000000   0.0000000   0.0000000   0.0000000   0.0000000   0.0000000
 NQMom=    0.0000000   0.0000000   0.0000000   0.0000000   0.0000000   0.0000000   0.0000000   2.0440000   0.0000000   0.0000000
 NMagM=    0.0000000   0.0000000   0.0000000   0.0000000   2.6288670   2.6288670   2.6288670   0.4037610   0.0000000   0.0000000
 AtZNuc=   6.0000000   6.0000000   6.0000000   6.0000000   9.0000000   9.0000000   9.0000000   7.0000000   8.0000000   8.0000000

  Atom        21          22          23          24          25          26          27          28          29          30
 IAtWgt=           1           1           1           1           1           1           1           1           1           1
 AtmWgt=   1.0078250   1.0078250   1.0078250   1.0078250   1.0078250   1.0078250   1.0078250   1.0078250   1.0078250   1.0078250
 NucSpn=           1           1           1           1           1           1           1           1           1           1
 AtZEff=   0.0000000   0.0000000   0.0000000   0.0000000   0.0000000   0.0000000   0.0000000   0.0000000   0.0000000   0.0000000
 NQMom=    0.0000000   0.0000000   0.0000000   0.0000000   0.0000000   0.0000000   0.0000000   0.0000000   0.0000000   0.0000000
 NMagM=    2.7928460   2.7928460   2.7928460   2.7928460   2.7928460   2.7928460   2.7928460   2.7928460   2.7928460   2.7928460
 AtZNuc=   1.0000000   1.0000000   1.0000000   1.0000000   1.0000000   1.0000000   1.0000000   1.0000000   1.0000000   1.0000000
 Leave Link  101 at Fri Oct 20 13:12:48 2017, MaxMem=   196608000 cpu:         0.1
 (Enter /usr/local/g09_d01/l202.exe)
                          Input orientation:                          
 ---------------------------------------------------------------------
 Center     Atomic      Atomic             Coordinates (Angstroms)
 Number     Number       Type             X           Y           Z
 ---------------------------------------------------------------------
      1          6           0       -2.437697    2.242389    0.116194
      2          6           0       -1.865308    0.963971    0.384773
      3          6           0       -2.480245    0.165417    1.370856
      4          6           0       -3.623981    0.589910    2.023806
      5          6           0       -4.209716    1.826119    1.731958
      6          6           0       -3.603774    2.639430    0.792219
      7          6           0       -1.806602    3.162851   -0.834726
      8          6           0       -0.069862   -0.662242   -0.206932
      9          6           0        1.331924   -0.662242   -0.206932
     10          6           0        2.030330   -1.863245   -0.206932
     11          6           0        1.356170   -3.085000   -0.192072
     12          6           0       -0.034158   -3.083897   -0.202477
     13          6           0       -0.746763   -1.888320   -0.223698
     14          6           0        3.532680   -1.869943   -0.194589
     15          9           0        4.017739   -2.374684    0.960131
     16          9           0        4.035003   -2.635969   -1.184894
     17          9           0        4.058600   -0.641617   -0.337932
     18          7           0       -0.729545    0.567369   -0.275527
     19          8           0       -2.493456    4.301972   -1.023063
     20          8           0       -0.751187    2.967550   -1.426893
     21          1           0       -2.030811   -0.782270    1.645033
     22          1           0       -4.061879   -0.052147    2.784486
     23          1           0       -5.110774    2.149580    2.243802
     24          1           0       -4.020674    3.614335    0.563257
     25          1           0        1.867202    0.282505   -0.202276
     26          1           0        1.911131   -4.018318   -0.186010
     27          1           0       -0.574419   -4.026641   -0.217453
     28          1           0       -1.830317   -1.905290   -0.287238
     29          1           0       -0.289181    1.312938   -0.813132
     30          1           0       -2.037978    4.856997   -1.675472
 ---------------------------------------------------------------------
                    Distance matrix (angstroms):
                    1          2          3          4          5
     1  C    0.000000
     2  C    1.426225   0.000000
     3  C    2.426891   1.410034   0.000000
     4  C    2.788717   2.432957   1.383716   0.000000
     5  C    2.433932   2.838037   2.424747   1.398740   0.000000
     6  C    1.405129   2.448559   2.778107   2.391181   1.382660
     7  C    1.466213   2.515094   3.781930   4.253716   3.761606
     8  C    3.761374   2.493654   2.997396   4.379023   5.204770
     9  C    4.769836   3.635516   4.207977   5.577192   6.376599
    10  C    6.076504   4.849666   5.191355   6.554799   7.503924
    11  C    6.547483   5.206231   5.265552   6.573962   7.668120
    12  C    5.852168   4.481429   4.360821   5.598216   6.729456
    13  C    4.476331   3.123611   3.124964   4.412628   5.441846
    14  C    7.256257   6.124133   6.538239   7.886060   8.793017
    15  F    7.981369   6.788807   6.988891   8.265356   9.270031
    16  F    8.208962   7.087813   7.538440   8.908540   9.818027
    17  F    7.122190   6.180041   6.806449   8.131206   8.873512
    18  N    2.424236   1.372314   2.436615   3.696647   4.210230
    19  O    2.354336   3.676795   4.779342   4.933650   4.082345
    20  O    2.398185   2.921939   4.320763   5.080693   4.821061
    21  H    3.413425   2.159862   1.084101   2.136478   3.399835
    22  H    3.875906   3.408232   2.132428   1.087486   2.158137
    23  H    3.417700   3.923609   3.408610   2.165992   1.085595
    24  H    2.141942   3.420802   3.862664   3.381969   2.144601
    25  H    4.740751   3.839356   4.624797   5.933214   6.561474
    26  H    7.628898   6.277777   6.261921   7.533692   8.677604
    27  H    6.548577   5.189921   4.871165   5.969557   7.160334
    28  H    4.211284   2.947114   2.731210   3.845020   4.864371
    29  H    2.518660   2.010207   3.299601   4.437553   4.702280
    30  H    3.194686   4.407956   5.611296   5.865841   5.051064
                    6          7          8          9         10
     6  C    0.000000
     7  C    2.480070   0.000000
     8  C    4.938408   4.247555   0.000000
     9  C    6.021666   4.987565   1.401786   0.000000
    10  C    7.281175   6.354354   2.419342   1.389309   0.000000
    11  C    7.637995   7.032195   2.811324   2.422925   1.395492
    12  C    6.818215   6.524045   2.421922   2.780398   2.398358
    13  C    5.449323   5.197205   1.400622   2.413398   2.777257
    14  C    8.499248   7.365237   3.799606   2.510383   1.502416
    15  F    9.124527   8.234607   4.582900   3.392358   2.360805
    16  F    9.491561   8.238524   4.658532   3.486925   2.360556
    17  F    8.411569   7.008664   4.130591   2.729899   2.371374
    18  N    3.700637   2.865184   1.397079   2.401313   3.678247
    19  O    2.700389   1.343442   5.584201   6.320049   7.690293
    20  O    3.628963   1.225849   3.889460   4.359248   5.706288
    21  H    3.861287   4.665132   2.699908   3.840855   4.592510
    22  H    3.379878   5.340523   5.025634   6.197895   7.024505
    23  H    2.148975   4.628348   6.270824   7.444515   8.550101
    24  H    1.084744   2.657124   5.872922   6.894390   8.198276
    25  H    6.039511   4.710968   2.155176   1.085860   2.151947
    26  H    8.700386   8.112432   3.897181   3.405755   2.158468
    27  H    7.391409   7.320389   3.402039   3.866967   3.386017
    28  H    4.996484   5.097682   2.156576   3.398733   3.861711
    29  H    3.914494   2.392741   2.077719   2.626175   3.979416
    30  H    3.668626   1.905392   6.040868   6.631353   7.991833
                   11         12         13         14         15
    11  C    0.000000
    12  C    1.390367   0.000000
    13  C    2.419787   1.391999   0.000000
    14  C    2.492702   3.767769   4.279581   0.000000
    15  F    2.985979   4.274636   4.933405   1.350342   0.000000
    16  F    2.891967   4.209971   4.934386   1.349010   2.160949
    17  F    3.646166   4.767992   4.965766   1.343847   2.165677
    18  N    4.206777   3.717613   2.456296   4.910560   5.720073
    19  O    8.371232   7.827680   6.481484   8.665634   9.534488
    20  O    6.526798   6.215572   5.002716   6.578102   7.548510
    21  H    4.488782   3.563342   2.522753   5.959838   6.292045
    22  H    6.885735   5.859692   4.838460   8.358026   8.602481
    23  H    8.669237   7.690617   6.437219   9.839289  10.268716
    24  H    8.623344   7.832303   6.451124   9.365084  10.032046
    25  H    3.406075   3.866243   3.397904   2.721564   3.610631
    26  H    1.085864   2.158139   3.406275   2.691656   2.907399
    27  H    2.148140   1.086680   2.145264   4.638980   5.020317
    28  H    3.399187   2.149997   1.085548   5.363914   5.998001
    29  H    4.736534   4.446357   3.287076   5.011980   5.940756
    30  H    8.763335   8.321226   7.019557   8.858723   9.793637
                   16         17         18         19         20
    16  F    0.000000
    17  F    2.166874   0.000000
    18  N    5.812851   4.938813   0.000000
    19  O    9.527958   8.236378   4.197315   0.000000
    20  O    7.373303   6.111135   2.662138   2.231426   0.000000
    21  H    6.945415   6.405690   2.683909   5.760407   5.013513
    22  H    9.380384   8.720043   4.566391   5.992974   6.149387
    23  H   10.876703   9.926407   5.295808   4.706968   5.757523
    24  H   10.344867   9.176052   4.562794   2.306870   3.881826
    25  H    3.765951   2.382148   2.613352   5.987081   3.945265
    26  H    2.723874   4.004599   5.292420   9.451363   7.578264
    27  H    4.910874   5.739143   4.596995   8.584725   7.100190
    28  H    5.978433   6.023187   2.706636   6.285801   5.119366
    29  H    5.867763   4.790543   1.019222   3.719842   1.824251
    30  H    9.657448   8.318175   4.698165   0.970129   2.299485
                   21         22         23         24         25
    21  H    0.000000
    22  H    2.440629   0.000000
    23  H    4.294233   2.498024   0.000000
    24  H    4.945698   4.287032   2.481543   0.000000
    25  H    4.443062   6.647311   7.626363   6.808393   0.000000
    26  H    5.418822   7.760877   9.656816   9.695623   4.301078
    27  H    4.014458   6.080347   8.048727   8.418473   4.952826
    28  H    2.243890   4.224866   5.797373   5.998939   4.297128
    29  H    3.669570   5.388837   5.769972   4.595097   2.466764
    30  H    6.544245   6.934486   5.668588   3.238395   6.192472
                   26         27         28         29         30
    26  H    0.000000
    27  H    2.485763   0.000000
    28  H    4.298089   2.466228   0.000000
    29  H    5.801461   5.380269   3.606751   0.000000
    30  H    9.827776   9.120682   6.906435   4.045031   0.000000
 Symmetry turned off by external request.
 Stoichiometry    C14H10F3NO2
 Framework group  C1[X(C14H10F3NO2)]
 Deg. of freedom    84
 Full point group                 C1      NOp   1
 Rotational constants (GHZ):      0.6867115      0.1568486      0.1369648
 Leave Link  202 at Fri Oct 20 13:12:48 2017, MaxMem=   196608000 cpu:         0.0
 (Enter /usr/local/g09_d01/l301.exe)
 Standard basis: 6-31+G(d) (6D, 7F)
 Ernie: Thresh=  0.10000D-02 Tol=  0.10000D-05 Strict=F.
   400 basis functions,   680 primitive gaussians,   400 cartesian basis functions
    72 alpha electrons       72 beta electrons
       nuclear repulsion energy      1484.8232078571 Hartrees.
 IExCor= 1009 DFT=T Ex+Corr=PBE1PBE ExCW=0 ScaHFX=  0.250000
 ScaDFX=  0.750000  0.750000  1.000000  1.000000 ScalE2=  1.000000  1.000000
 IRadAn=      0 IRanWt=     -1 IRanGd=            0 ICorTp=0 IEmpDi=  4
 NAtoms=   30 NActive=   30 NUniq=   30 SFac= 1.00D+00 NAtFMM=   60 NAOKFM=F Big=F
 Integral buffers will be    131072 words long.
 Raffenetti 2 integral format.
 Two-electron integral symmetry is turned off.
 Warning! Using old PCM defaults because it has been requested by the route generator.
 These settings can be overridden by following keywords.
 Using the following non-standard input for PCM:
 EPS=3.0
 --- end of non-standard input.
 ------------------------------------------------------------------------------
 United Atom Topological Model (UA0  parameters set).
  Nord Group  Hybr  Charge Alpha Radius          Bonded to
    1   C     *     0.00   1.00  1.925   C2   [s]  C6   [s]  C7   [s]
    2   C     *     0.00   1.00  1.925   C1   [s]  C3   [s]  N18  [s]
    3   CH    *     0.00   1.00  2.125   C2   [s]  C4   [d]
    4   CH    *     0.00   1.00  2.125   C3   [d]  C5   [s]
    5   CH    *     0.00   1.00  2.125   C4   [s]  C6   [d]
    6   CH    *     0.00   1.00  2.125   C1   [s]  C5   [d]
    7   C     *     0.00   1.00  1.925   C1   [s]  O19  [s]  O20  [d]
    8   C     *     0.00   1.00  1.925   C9   [s]  C13  [s]  N18  [s]
    9   CH    *     0.00   1.00  2.125   C8   [s]  C10  [d]
   10   C     *     0.00   1.00  1.925   C9   [d]  C11  [s]  C14  [s]
   11   CH    *     0.00   1.00  2.125   C10  [s]  C12  [d]
   12   CH    *     0.00   1.00  2.125   C11  [d]  C13  [d]
   13   CH    *     0.00   1.00  2.125   C8   [s]  C12  [d]
   14   C     *     0.00   1.00  1.925   C10  [s]  F15  [s]  F16  [s]  F17  [s]
   15   F     *     0.00   1.00  1.682   C14  [s]
   16   F     *     0.00   1.00  1.682   C14  [s]
   17   F     *     0.00   1.00  1.682   C14  [s]
   18   NH    *     0.00   1.00  1.930   C2   [s]  C8   [s]
   19   OH    *     0.00   1.00  1.850   C7   [s]
   20   O     *     0.00   1.00  1.750   C7   [d]
 ------------------------------------------------------------------------------
 Polarizable Continuum Model (PCM)
 =================================
 Model                : PCM (using non-symmetric T matrix).
 Atomic radii         : UA0 (Simple United Atom Topological Model).
 Polarization charges : Total charges.
 Charge compensation  : None.
 Solution method      : On-the-fly selection.
 Cavity type          : SES (Solvent Excluding Surface) (Alpha=1.000).
 Cavity algorithm     : GePol (RMin=0.200 OFac=0.890).
                        Default sphere list used, NSphG=   20.
                        Tesserae with average area of 0.200 Ang**2.
                        Smoothing algorithm: None.
                        Polarization charges: point-like.
                        Self-potential: constant (ISelfS= 1).
                        Self-field    : global E.n sum rule (ISelfD= 3).
 Solvent              : Water, Eps=   3.000000 Eps(inf)=   1.777849
                        RSolv=   1.385000 Ang.
 ------------------------------------------------------------------------------
 Spheres list:
 ISph  on   Nord     Re0    Alpha      Xe            Ye            Ze
    1   C      1    1.9250  1.000     -2.437697      2.242389      0.116194
    2   C      2    1.9250  1.000     -1.865308      0.963971      0.384773
    3   C      3    2.1250  1.000     -2.480245      0.165417      1.370856
    4   C      4    2.1250  1.000     -3.623981      0.589910      2.023806
    5   C      5    2.1250  1.000     -4.209716      1.826119      1.731958
    6   C      6    2.1250  1.000     -3.603774      2.639430      0.792219
    7   C      7    1.9250  1.000     -1.806602      3.162851     -0.834726
    8   C      8    1.9250  1.000     -0.069862     -0.662242     -0.206932
    9   C      9    2.1250  1.000      1.331924     -0.662242     -0.206932
   10   C     10    1.9250  1.000      2.030330     -1.863245     -0.206932
   11   C     11    2.1250  1.000      1.356170     -3.085000     -0.192072
   12   C     12    2.1250  1.000     -0.034158     -3.083897     -0.202477
   13   C     13    2.1250  1.000     -0.746763     -1.888320     -0.223698
   14   C     14    1.9250  1.000      3.532680     -1.869943     -0.194589
   15   F     15    1.6820  1.000      4.017739     -2.374684      0.960131
   16   F     16    1.6820  1.000      4.035003     -2.635969     -1.184894
   17   F     17    1.6820  1.000      4.058600     -0.641617     -0.337932
   18   N     18    1.9300  1.000     -0.729545      0.567369     -0.275527
   19   O     19    1.8500  1.000     -2.493456      4.301972     -1.023063
   20   O     20    1.7500  1.000     -0.751187      2.967550     -1.426893
 ------------------------------------------------------------------------------
 GePol: Number of generator spheres                  =      20
 GePol: Total number of spheres                      =     132
 GePol: Number of exposed spheres                    =     113 ( 85.61%)
 GePol: Number of tesserae                           =    2678
 GePol: Average area of tesserae                     =       0.10 Ang**2
 GePol: Minimum area of tessera                      =   0.10D-02 Ang**2
 GePol: Maximum area of tessera                      =    0.30017 Ang**2
 GePol: Number of small tesserae                     =       3
 GePol: Fraction of small tesserae (<1% of avg)      =       0.11%
 GePol: Total count of vertices                      =    9842
 GePol: Maximum number of vertices in a tessera      =       8
 GePol: Cavity surface area                          =    279.471 Ang**2
 GePol: Cavity volume                                =    300.665 Ang**3
 Leave Link  301 at Fri Oct 20 13:12:48 2017, MaxMem=   196608000 cpu:         0.2
 (Enter /usr/local/g09_d01/l302.exe)
 NPDir=0 NMtPBC=     1 NCelOv=     1 NCel=       1 NClECP=     1 NCelD=      1
         NCelK=      1 NCelE2=     1 NClLst=     1 CellRange=     0.0.
 One-electron integrals computed using PRISM.
 NBasis=   400 RedAO= T EigKep=  1.29D-06  NBF=   400
 NBsUse=   398 1.00D-06 EigRej=  8.79D-07 NBFU=   398
 Precomputing XC quadrature grid using
 IXCGrd= 4 IRadAn=           0 IRanWt=          -1 IRanGd=           0 AccXCQ= 0.00D+00.
 Generated NRdTot=       0 NPtTot=           0 NUsed=           0 NTot=          32
 NSgBfM=   396   396   396   396   396 MxSgAt=    30 MxSgA2=    30.
 Leave Link  302 at Fri Oct 20 13:12:49 2017, MaxMem=   196608000 cpu:         0.9
 (Enter /usr/local/g09_d01/l303.exe)
 DipDrv:  MaxL=1.
 Leave Link  303 at Fri Oct 20 13:12:49 2017, MaxMem=   196608000 cpu:         0.1
 (Enter /usr/local/g09_d01/l401.exe)
 ExpMin= 4.38D-02 ExpMax= 7.00D+03 ExpMxC= 1.05D+03 IAcc=2 IRadAn=         4 AccDes= 0.00D+00
 Harris functional with IExCor= 1009 and IRadAn=       4 diagonalized for initial guess.
 HarFok:  IExCor= 1009 AccDes= 0.00D+00 IRadAn=         4 IDoV= 1 UseB2=F ITyADJ=14
 ICtDFT=  3500011 ScaDFX=  1.000000  1.000000  1.000000  1.000000
 FoFCou: FMM=F IPFlag=           0 FMFlag=      100000 FMFlg1=           0
         NFxFlg=           0 DoJE=T BraDBF=F KetDBF=T FulRan=T
         wScrn=  0.000000 ICntrl=     500 IOpCl=  0 I1Cent=   200000004 NGrid=           0
         NMat0=    1 NMatS0=      1 NMatT0=    0 NMatD0=    1 NMtDS0=    0 NMtDT0=    0
 Symmetry not used in FoFCou.
 Harris En= -1043.34273259246    
 JPrj=0 DoOrth=F DoCkMO=F.
 Leave Link  401 at Fri Oct 20 13:12:57 2017, MaxMem=   196608000 cpu:         8.2
 (Enter /usr/local/g09_d01/l502.exe)
 Closed shell SCF:
 Using DIIS extrapolation, IDIIS=  1040.
 Two-electron integral symmetry not used.
 IVT=      503410 IEndB=      503410 NGot=   196608000 MDV=   196281631
 LenX=   196281631 LenY=   196121190
 Requested convergence on RMS density matrix=1.00D-08 within 128 cycles.
 Requested convergence on MAX density matrix=1.00D-06.
 Requested convergence on             energy=1.00D-06.
 No special actions if energy rises.
 Fock matrices will be formed incrementally for  20 cycles.

 Cycle   1  Pass 1  IDiag  1:
 FoFJK:  IHMeth= 1 ICntrl=       0 DoSepK=F KAlg= 0 I1Cent=   0 FoldK=F
 IRaf= 800000000 NMat=   1 IRICut=       1 DoRegI=T DoRafI=F ISym2E= 0.
 FoFCou: FMM=F IPFlag=           0 FMFlag=      100000 FMFlg1=           0
         NFxFlg=           0 DoJE=F BraDBF=F KetDBF=F FulRan=T
         wScrn=  0.000000 ICntrl=       0 IOpCl=  0 I1Cent=           0 NGrid=           0
         NMat0=    1 NMatS0=      1 NMatT0=    0 NMatD0=    1 NMtDS0=    0 NMtDT0=    0
 Symmetry not used in FoFCou.
 Inv3:  Mode=1 IEnd=    21515052.
 Iteration    1 A*A^-1 deviation from unit magnitude is 6.66D-15 for   2676.
 Iteration    1 A*A^-1 deviation from orthogonality  is 1.40D-14 for   1880   1102.
 Iteration    1 A^-1*A deviation from unit magnitude is 1.11D-14 for   1880.
 Iteration    1 A^-1*A deviation from orthogonality  is 1.39D-14 for   1880   1102.
 E= -1042.86198127827    
 DIIS: error= 1.67D-02 at cycle   1 NSaved=   1.
 NSaved= 1 IEnMin= 1 EnMin= -1042.86198127827     IErMin= 1 ErrMin= 1.67D-02
 ErrMax= 1.67D-02  0.00D+00 EMaxC= 1.00D-01 BMatC= 3.96D-01 BMatP= 3.96D-01
 IDIUse=3 WtCom= 8.33D-01 WtEn= 1.67D-01
 Coeff-Com:  0.100D+01
 Coeff-En:   0.100D+01
 Coeff:      0.100D+01
 Gap=     0.174 Goal=   None    Shift=    0.000
 GapD=    0.174 DampG=1.000 DampE=0.500 DampFc=0.5000 IDamp=-1.
 Damping current iteration by 5.00D-01
 RMSDP=2.92D-02 MaxDP=3.12D+00              OVMax= 2.07D-01

 Cycle   2  Pass 1  IDiag  1:
 RMSU=  1.44D-02    CP:  1.03D+00
 E= -1043.00487330411     Delta-E=       -0.142892025839 Rises=F Damp=T
 DIIS: error= 8.13D-03 at cycle   2 NSaved=   2.
 NSaved= 2 IEnMin= 2 EnMin= -1043.00487330411     IErMin= 2 ErrMin= 8.13D-03
 ErrMax= 8.13D-03  0.00D+00 EMaxC= 1.00D-01 BMatC= 3.53D-02 BMatP= 3.96D-01
 IDIUse=3 WtCom= 9.19D-01 WtEn= 8.13D-02
 Coeff-Com:  0.860D-01 0.914D+00
 Coeff-En:   0.162D+00 0.838D+00
 Coeff:      0.922D-01 0.908D+00
 Gap=     0.168 Goal=   None    Shift=    0.000
 RMSDP=2.32D-02 MaxDP=4.37D+00 DE=-1.43D-01 OVMax= 1.36D-01

 Cycle   3  Pass 1  IDiag  1:
 RMSU=  8.21D-03    CP:  7.91D-01  5.51D-01
 E= -1043.18764782939     Delta-E=       -0.182774525287 Rises=F Damp=F
 DIIS: error= 4.48D-03 at cycle   3 NSaved=   3.
 NSaved= 3 IEnMin= 3 EnMin= -1043.18764782939     IErMin= 3 ErrMin= 4.48D-03
 ErrMax= 4.48D-03  0.00D+00 EMaxC= 1.00D-01 BMatC= 2.37D-02 BMatP= 3.53D-02
 IDIUse=3 WtCom= 9.55D-01 WtEn= 4.48D-02
 Coeff-Com: -0.282D-01 0.443D+00 0.585D+00
 Coeff-En:   0.000D+00 0.000D+00 0.100D+01
 Coeff:     -0.269D-01 0.423D+00 0.604D+00
 Gap=     0.169 Goal=   None    Shift=    0.000
 RMSDP=6.30D-03 MaxDP=8.60D-01 DE=-1.83D-01 OVMax= 5.57D-02

 Cycle   4  Pass 1  IDiag  1:
 RMSU=  4.60D-03    CP:  8.29D-01  5.31D-01  6.63D-01
 E= -1043.20325022684     Delta-E=       -0.015602397450 Rises=F Damp=F
 DIIS: error= 2.38D-03 at cycle   4 NSaved=   4.
 NSaved= 4 IEnMin= 4 EnMin= -1043.20325022684     IErMin= 4 ErrMin= 2.38D-03
 ErrMax= 2.38D-03  0.00D+00 EMaxC= 1.00D-01 BMatC= 6.23D-03 BMatP= 2.37D-02
 IDIUse=3 WtCom= 9.76D-01 WtEn= 2.38D-02
 Coeff-Com: -0.270D-01 0.103D+00 0.368D+00 0.556D+00
 Coeff-En:   0.000D+00 0.000D+00 0.230D+00 0.770D+00
 Coeff:     -0.263D-01 0.101D+00 0.365D+00 0.561D+00
 Gap=     0.163 Goal=   None    Shift=    0.000
 RMSDP=2.05D-03 MaxDP=1.66D-01 DE=-1.56D-02 OVMax= 1.97D-02

 Cycle   5  Pass 1  IDiag  1:
 RMSU=  9.09D-04    CP:  8.17D-01  5.81D-01  7.41D-01  7.32D-01
 E= -1043.20856414010     Delta-E=       -0.005313913257 Rises=F Damp=F
 DIIS: error= 7.73D-04 at cycle   5 NSaved=   5.
 NSaved= 5 IEnMin= 5 EnMin= -1043.20856414010     IErMin= 5 ErrMin= 7.73D-04
 ErrMax= 7.73D-04  0.00D+00 EMaxC= 1.00D-01 BMatC= 3.73D-04 BMatP= 6.23D-03
 IDIUse=3 WtCom= 9.92D-01 WtEn= 7.73D-03
 Coeff-Com: -0.128D-01 0.302D-01 0.163D+00 0.306D+00 0.513D+00
 Coeff-En:   0.000D+00 0.000D+00 0.000D+00 0.000D+00 0.100D+01
 Coeff:     -0.127D-01 0.300D-01 0.162D+00 0.304D+00 0.517D+00
 Gap=     0.164 Goal=   None    Shift=    0.000
 RMSDP=5.13D-04 MaxDP=6.65D-02 DE=-5.31D-03 OVMax= 5.00D-03

 Cycle   6  Pass 1  IDiag  1:
 RMSU=  3.67D-04    CP:  8.15D-01  5.88D-01  7.46D-01  6.91D-01  8.52D-01
 E= -1043.20884321176     Delta-E=       -0.000279071663 Rises=F Damp=F
 DIIS: error= 1.78D-04 at cycle   6 NSaved=   6.
 NSaved= 6 IEnMin= 6 EnMin= -1043.20884321176     IErMin= 6 ErrMin= 1.78D-04
 ErrMax= 1.78D-04  0.00D+00 EMaxC= 1.00D-01 BMatC= 2.83D-05 BMatP= 3.73D-04
 IDIUse=3 WtCom= 9.98D-01 WtEn= 1.78D-03
 Coeff-Com: -0.474D-02 0.836D-02 0.546D-01 0.112D+00 0.275D+00 0.555D+00
 Coeff-En:   0.000D+00 0.000D+00 0.000D+00 0.000D+00 0.000D+00 0.100D+01
 Coeff:     -0.473D-02 0.834D-02 0.545D-01 0.111D+00 0.274D+00 0.556D+00
 Gap=     0.164 Goal=   None    Shift=    0.000
 RMSDP=1.47D-04 MaxDP=1.03D-02 DE=-2.79D-04 OVMax= 1.32D-03

 Cycle   7  Pass 1  IDiag  1:
 RMSU=  7.10D-05    CP:  8.15D-01  5.83D-01  7.45D-01  7.01D-01  8.07D-01
                    CP:  7.56D-01
 E= -1043.20886493855     Delta-E=       -0.000021726783 Rises=F Damp=F
 DIIS: error= 3.66D-05 at cycle   7 NSaved=   7.
 NSaved= 7 IEnMin= 7 EnMin= -1043.20886493855     IErMin= 7 ErrMin= 3.66D-05
 ErrMax= 3.66D-05  0.00D+00 EMaxC= 1.00D-01 BMatC= 2.13D-06 BMatP= 2.83D-05
 IDIUse=1 WtCom= 1.00D+00 WtEn= 0.00D+00
 Coeff-Com: -0.187D-02 0.269D-02 0.195D-01 0.413D-01 0.118D+00 0.303D+00
 Coeff-Com:  0.518D+00
 Coeff:     -0.187D-02 0.269D-02 0.195D-01 0.413D-01 0.118D+00 0.303D+00
 Coeff:      0.518D+00
 Gap=     0.164 Goal=   None    Shift=    0.000
 RMSDP=4.65D-05 MaxDP=5.90D-03 DE=-2.17D-05 OVMax= 5.01D-04

 Cycle   8  Pass 1  IDiag  1:
 RMSU=  1.98D-05    CP:  8.14D-01  5.83D-01  7.48D-01  6.98D-01  8.00D-01
                    CP:  7.72D-01  7.34D-01
 E= -1043.20886684968     Delta-E=       -0.000001911138 Rises=F Damp=F
 DIIS: error= 1.38D-05 at cycle   8 NSaved=   8.
 NSaved= 8 IEnMin= 8 EnMin= -1043.20886684968     IErMin= 8 ErrMin= 1.38D-05
 ErrMax= 1.38D-05  0.00D+00 EMaxC= 1.00D-01 BMatC= 1.58D-07 BMatP= 2.13D-06
 IDIUse=1 WtCom= 1.00D+00 WtEn= 0.00D+00
 Coeff-Com: -0.304D-03 0.240D-03 0.225D-02 0.513D-02 0.222D-01 0.771D-01
 Coeff-Com:  0.244D+00 0.649D+00
 Coeff:     -0.304D-03 0.240D-03 0.225D-02 0.513D-02 0.222D-01 0.771D-01
 Coeff:      0.244D+00 0.649D+00
 Gap=     0.164 Goal=   None    Shift=    0.000
 RMSDP=1.11D-05 MaxDP=1.78D-03 DE=-1.91D-06 OVMax= 1.91D-04

 Cycle   9  Pass 1  IDiag  1:
 RMSU=  6.77D-06    CP:  8.15D-01  5.83D-01  7.47D-01  6.99D-01  8.03D-01
                    CP:  7.71D-01  7.67D-01  8.95D-01
 E= -1043.20886697680     Delta-E=       -0.000000127118 Rises=F Damp=F
 DIIS: error= 7.35D-06 at cycle   9 NSaved=   9.
 NSaved= 9 IEnMin= 9 EnMin= -1043.20886697680     IErMin= 9 ErrMin= 7.35D-06
 ErrMax= 7.35D-06  0.00D+00 EMaxC= 1.00D-01 BMatC= 3.19D-08 BMatP= 1.58D-07
 IDIUse=1 WtCom= 1.00D+00 WtEn= 0.00D+00
 Coeff-Com:  0.631D-04-0.192D-03-0.118D-02-0.252D-02-0.286D-02 0.382D-02
 Coeff-Com:  0.635D-01 0.363D+00 0.576D+00
 Coeff:      0.631D-04-0.192D-03-0.118D-02-0.252D-02-0.286D-02 0.382D-02
 Coeff:      0.635D-01 0.363D+00 0.576D+00
 Gap=     0.164 Goal=   None    Shift=    0.000
 RMSDP=5.42D-06 MaxDP=6.49D-04 DE=-1.27D-07 OVMax= 6.47D-05

 Cycle  10  Pass 1  IDiag  1:
 RMSU=  2.45D-06    CP:  8.15D-01  5.83D-01  7.47D-01  6.99D-01  8.05D-01
                    CP:  7.73D-01  7.73D-01  9.44D-01  8.95D-01
 E= -1043.20886700734     Delta-E=       -0.000000030539 Rises=F Damp=F
 DIIS: error= 2.08D-06 at cycle  10 NSaved=  10.
 NSaved=10 IEnMin=10 EnMin= -1043.20886700734     IErMin=10 ErrMin= 2.08D-06
 ErrMax= 2.08D-06  0.00D+00 EMaxC= 1.00D-01 BMatC= 3.05D-09 BMatP= 3.19D-08
 IDIUse=1 WtCom= 1.00D+00 WtEn= 0.00D+00
 Coeff-Com:  0.550D-04-0.116D-03-0.764D-03-0.173D-02-0.309D-02-0.309D-02
 Coeff-Com:  0.163D-01 0.149D+00 0.317D+00 0.527D+00
 Coeff:      0.550D-04-0.116D-03-0.764D-03-0.173D-02-0.309D-02-0.309D-02
 Coeff:      0.163D-01 0.149D+00 0.317D+00 0.527D+00
 Gap=     0.164 Goal=   None    Shift=    0.000
 RMSDP=1.70D-06 MaxDP=1.18D-04 DE=-3.05D-08 OVMax= 2.25D-05

 Cycle  11  Pass 1  IDiag  1:
 RMSU=  1.22D-06    CP:  8.15D-01  5.83D-01  7.47D-01  6.98D-01  8.04D-01
                    CP:  7.75D-01  7.76D-01  9.55D-01  9.30D-01  7.73D-01
 E= -1043.20886701046     Delta-E=       -0.000000003117 Rises=F Damp=F
 DIIS: error= 6.65D-07 at cycle  11 NSaved=  11.
 NSaved=11 IEnMin=11 EnMin= -1043.20886701046     IErMin=11 ErrMin= 6.65D-07
 ErrMax= 6.65D-07  0.00D+00 EMaxC= 1.00D-01 BMatC= 2.67D-10 BMatP= 3.05D-09
 IDIUse=1 WtCom= 1.00D+00 WtEn= 0.00D+00
 Coeff-Com:  0.174D-04-0.279D-04-0.175D-03-0.442D-03-0.104D-02-0.207D-02
 Coeff-Com: -0.276D-02 0.109D-01 0.558D-01 0.255D+00 0.685D+00
 Coeff:      0.174D-04-0.279D-04-0.175D-03-0.442D-03-0.104D-02-0.207D-02
 Coeff:     -0.276D-02 0.109D-01 0.558D-01 0.255D+00 0.685D+00
 Gap=     0.164 Goal=   None    Shift=    0.000
 RMSDP=4.75D-07 MaxDP=3.93D-05 DE=-3.12D-09 OVMax= 1.00D-05

 Cycle  12  Pass 1  IDiag  1:
 RMSU=  2.14D-07    CP:  8.15D-01  5.83D-01  7.47D-01  6.98D-01  8.04D-01
                    CP:  7.75D-01  7.76D-01  9.59D-01  9.44D-01  8.34D-01
                    CP:  8.38D-01
 E= -1043.20886701081     Delta-E=       -0.000000000347 Rises=F Damp=F
 DIIS: error= 1.28D-07 at cycle  12 NSaved=  12.
 NSaved=12 IEnMin=12 EnMin= -1043.20886701081     IErMin=12 ErrMin= 1.28D-07
 ErrMax= 1.28D-07  0.00D+00 EMaxC= 1.00D-01 BMatC= 1.77D-11 BMatP= 2.67D-10
 IDIUse=1 WtCom= 1.00D+00 WtEn= 0.00D+00
 Coeff-Com:  0.366D-05-0.382D-05-0.162D-04-0.580D-04-0.228D-03-0.667D-03
 Coeff-Com: -0.239D-02-0.723D-02-0.160D-02 0.630D-01 0.280D+00 0.670D+00
 Coeff:      0.366D-05-0.382D-05-0.162D-04-0.580D-04-0.228D-03-0.667D-03
 Coeff:     -0.239D-02-0.723D-02-0.160D-02 0.630D-01 0.280D+00 0.670D+00
 Gap=     0.164 Goal=   None    Shift=    0.000
 RMSDP=1.87D-07 MaxDP=1.64D-05 DE=-3.47D-10 OVMax= 2.17D-06

 Cycle  13  Pass 1  IDiag  1:
 RMSU=  8.34D-08    CP:  8.15D-01  5.83D-01  7.47D-01  6.98D-01  8.04D-01
                    CP:  7.75D-01  7.76D-01  9.59D-01  9.53D-01  8.59D-01
                    CP:  9.21D-01  9.87D-01
 E= -1043.20886701084     Delta-E=       -0.000000000038 Rises=F Damp=F
 DIIS: error= 5.05D-08 at cycle  13 NSaved=  13.
 NSaved=13 IEnMin=13 EnMin= -1043.20886701084     IErMin=13 ErrMin= 5.05D-08
 ErrMax= 5.05D-08  0.00D+00 EMaxC= 1.00D-01 BMatC= 2.47D-12 BMatP= 1.77D-11
 IDIUse=1 WtCom= 1.00D+00 WtEn= 0.00D+00
 Coeff-Com: -0.669D-06 0.184D-05 0.170D-04 0.362D-04 0.395D-04 0.943D-05
 Coeff-Com: -0.523D-03-0.443D-02-0.781D-02-0.785D-02 0.308D-01 0.290D+00
 Coeff-Com:  0.700D+00
 Coeff:     -0.669D-06 0.184D-05 0.170D-04 0.362D-04 0.395D-04 0.943D-05
 Coeff:     -0.523D-03-0.443D-02-0.781D-02-0.785D-02 0.308D-01 0.290D+00
 Coeff:      0.700D+00
 Gap=     0.164 Goal=   None    Shift=    0.000
 RMSDP=5.16D-08 MaxDP=4.49D-06 DE=-3.82D-11 OVMax= 1.38D-06

 Cycle  14  Pass 1  IDiag  1:
 RMSU=  3.29D-08    CP:  8.15D-01  5.83D-01  7.47D-01  6.98D-01  8.04D-01
                    CP:  7.74D-01  7.77D-01  9.58D-01  9.56D-01  8.65D-01
                    CP:  9.29D-01  1.06D+00  8.51D-01
 E= -1043.20886701082     Delta-E=        0.000000000020 Rises=F Damp=F
 DIIS: error= 2.34D-08 at cycle  14 NSaved=  14.
 NSaved=14 IEnMin=13 EnMin= -1043.20886701084     IErMin=14 ErrMin= 2.34D-08
 ErrMax= 2.34D-08  0.00D+00 EMaxC= 1.00D-01 BMatC= 4.10D-13 BMatP= 2.47D-12
 IDIUse=1 WtCom= 1.00D+00 WtEn= 0.00D+00
 Coeff-Com: -0.647D-06 0.132D-05 0.102D-04 0.243D-04 0.381D-04 0.559D-04
 Coeff-Com: -0.730D-04-0.180D-02-0.404D-02-0.102D-01-0.893D-02 0.786D-01
 Coeff-Com:  0.364D+00 0.583D+00
 Coeff:     -0.647D-06 0.132D-05 0.102D-04 0.243D-04 0.381D-04 0.559D-04
 Coeff:     -0.730D-04-0.180D-02-0.404D-02-0.102D-01-0.893D-02 0.786D-01
 Coeff:      0.364D+00 0.583D+00
 Gap=     0.164 Goal=   None    Shift=    0.000
 RMSDP=2.36D-08 MaxDP=3.83D-06 DE= 2.05D-11 OVMax= 2.57D-07

 Cycle  15  Pass 1  IDiag  1:
 RMSU=  9.19D-09    CP:  8.15D-01  5.83D-01  7.47D-01  6.98D-01  8.04D-01
                    CP:  7.74D-01  7.76D-01  9.58D-01  9.56D-01  8.65D-01
                    CP:  9.36D-01  1.08D+00  9.63D-01  7.55D-01
 E= -1043.20886701086     Delta-E=       -0.000000000038 Rises=F Damp=F
 DIIS: error= 4.32D-09 at cycle  15 NSaved=  15.
 NSaved=15 IEnMin=15 EnMin= -1043.20886701086     IErMin=15 ErrMin= 4.32D-09
 ErrMax= 4.32D-09  0.00D+00 EMaxC= 1.00D-01 BMatC= 2.22D-14 BMatP= 4.10D-13
 IDIUse=1 WtCom= 1.00D+00 WtEn= 0.00D+00
 Coeff-Com: -0.161D-06 0.262D-06 0.179D-05 0.500D-05 0.916D-05 0.184D-04
 Coeff-Com:  0.442D-04-0.156D-03-0.552D-03-0.305D-02-0.640D-02-0.665D-02
 Coeff-Com:  0.655D-01 0.219D+00 0.732D+00
 Coeff:     -0.161D-06 0.262D-06 0.179D-05 0.500D-05 0.916D-05 0.184D-04
 Coeff:      0.442D-04-0.156D-03-0.552D-03-0.305D-02-0.640D-02-0.665D-02
 Coeff:      0.655D-01 0.219D+00 0.732D+00
 Gap=     0.164 Goal=   None    Shift=    0.000
 RMSDP=5.85D-09 MaxDP=4.25D-07 DE=-3.77D-11 OVMax= 1.35D-07

 Error on total polarization charges =  0.01989
 SCF Done:  E(RPBE1PBE) =  -1043.20886701     A.U. after   15 cycles
            NFock= 15  Conv=0.58D-08     -V/T= 2.0081
 KE= 1.034793485105D+03 PE=-5.412822630544D+03 EE= 1.849997070571D+03
 --------------------------------------------------------------------
 Variational PCM results
 =======================
 <psi(f)|   H    |psi(f)>                     (a.u.) =   -1043.195618
 <psi(f)|H+V(f)/2|psi(f)>                     (a.u.) =   -1043.208867
 Total free energy in solution:
 - with all non electrostatic terms           (a.u.) =   -1043.191725
 --------------------------------------------------------------------
 (Polarized solute)-Solvent               (kcal/mol) =      -8.31
 --------------------------------------------------------------------
 Cavitation energy                        (kcal/mol) =      34.17
 Dispersion energy                        (kcal/mol) =     -25.45
 Repulsion energy                         (kcal/mol) =       2.04
 Total non electrostatic                  (kcal/mol) =      10.76
 --------------------------------------------------------------------
 Partition over spheres:
 Sphere  on Atom  Surface  Charge   GEl     GCav    GDR
    1      C1       2.26   0.003   -0.01    0.51   -0.25
    2      C2       2.05   0.000    0.00    0.48   -0.23
    3      C3      11.14   0.003   -0.14    1.97   -1.23
    4      C4      17.81  -0.019   -0.45    2.34   -1.85
    5      C5      18.17  -0.010   -0.39    2.38   -1.83
    6      C6      14.25  -0.006   -0.24    2.19   -1.53
    7      C7       4.58  -0.013   -0.03    0.86   -0.53
    8      C8       0.59   0.000    0.00    0.28   -0.04
    9      C9      14.24  -0.019   -0.32    2.38   -1.62
   10      C10      0.84   0.000    0.00    0.30   -0.02
   11      C11     13.77  -0.023   -0.41    2.30   -1.54
   12      C12     17.87  -0.023   -0.48    2.35   -1.90
   13      C13     11.80  -0.014   -0.29    2.01   -1.28
   14      C14      0.15  -0.001    0.00    0.21    0.00
   15      F15     15.37   0.036   -0.25    2.45   -1.72
   16      F16     14.93   0.034   -0.23    2.40   -1.70
   17      F17     13.97   0.028   -0.17    2.29   -1.63
   18      N18      4.49   0.005   -0.03    1.23   -0.48
   19      O19     20.52  -0.070   -3.46    2.91   -2.32
   20      O20     15.02   0.098   -0.88    2.36   -1.73
 Added spheres:    65.65  -0.029   -0.53    0.00    0.00
 --------------------------------------------------------------------
 - cavitation energy not included in the total energy.
 - dispersion energy not included in the total energy.
 - repulsion  energy not included in the total energy.
 After PCM corrections, the energy is  -1043.20886701     a.u.
 --------------------------------------------------------------------
 Leave Link  502 at Fri Oct 20 13:24:16 2017, MaxMem=   196608000 cpu:       678.8
 (Enter /usr/local/g09_d01/l601.exe)
 Copying SCF densities to generalized density rwf, IOpCl= 0 IROHF=0.

 **********************************************************************

            Population analysis using the SCF density.

 **********************************************************************

 Alpha  occ. eigenvalues --  -24.83915 -24.83528 -24.83444 -19.28503 -19.23672
 Alpha  occ. eigenvalues --  -14.43907 -10.49724 -10.38669 -10.31112 -10.30331
 Alpha  occ. eigenvalues --  -10.27787 -10.26485 -10.26347 -10.26071 -10.25993
 Alpha  occ. eigenvalues --  -10.25907 -10.25878 -10.25801 -10.24929 -10.24382
 Alpha  occ. eigenvalues --   -1.35977  -1.27138  -1.26664  -1.15288  -1.06007
 Alpha  occ. eigenvalues --   -0.99966  -0.91098  -0.88751  -0.82196  -0.80727
 Alpha  occ. eigenvalues --   -0.79872  -0.76101  -0.73659  -0.69633  -0.66954
 Alpha  occ. eigenvalues --   -0.66333  -0.63675  -0.62802  -0.62005  -0.61462
 Alpha  occ. eigenvalues --   -0.59330  -0.55914  -0.54232  -0.53379  -0.52540
 Alpha  occ. eigenvalues --   -0.51552  -0.50119  -0.49646  -0.48957  -0.48295
 Alpha  occ. eigenvalues --   -0.47745  -0.47020  -0.46327  -0.45846  -0.45238
 Alpha  occ. eigenvalues --   -0.44620  -0.43550  -0.42977  -0.42482  -0.41948
 Alpha  occ. eigenvalues --   -0.39958  -0.39730  -0.39052  -0.37924  -0.37084
 Alpha  occ. eigenvalues --   -0.35281  -0.34599  -0.31031  -0.28917  -0.28385
 Alpha  occ. eigenvalues --   -0.28205  -0.22116
 Alpha virt. eigenvalues --   -0.05731  -0.03662  -0.02576   0.00792   0.00916
 Alpha virt. eigenvalues --    0.01936   0.02542   0.03493   0.03794   0.04230
 Alpha virt. eigenvalues --    0.04482   0.05031   0.05446   0.05722   0.05842
 Alpha virt. eigenvalues --    0.06508   0.07330   0.07792   0.08126   0.08596
 Alpha virt. eigenvalues --    0.09492   0.09660   0.10382   0.10906   0.11069
 Alpha virt. eigenvalues --    0.11946   0.12406   0.12738   0.13048   0.13235
 Alpha virt. eigenvalues --    0.13901   0.14181   0.14463   0.14745   0.15527
 Alpha virt. eigenvalues --    0.15766   0.16214   0.16503   0.17102   0.17826
 Alpha virt. eigenvalues --    0.17952   0.18406   0.18799   0.19170   0.19762
 Alpha virt. eigenvalues --    0.20256   0.20291   0.20645   0.20905   0.20980
 Alpha virt. eigenvalues --    0.21525   0.22188   0.22484   0.22584   0.22908
 Alpha virt. eigenvalues --    0.23195   0.23581   0.23693   0.24226   0.24868
 Alpha virt. eigenvalues --    0.25116   0.25275   0.25752   0.26452   0.26664
 Alpha virt. eigenvalues --    0.26980   0.27239   0.27284   0.27681   0.27873
 Alpha virt. eigenvalues --    0.28234   0.28701   0.29338   0.29706   0.30109
 Alpha virt. eigenvalues --    0.30356   0.30470   0.30657   0.31423   0.32189
 Alpha virt. eigenvalues --    0.32266   0.32766   0.33242   0.33512   0.34494
 Alpha virt. eigenvalues --    0.35116   0.35418   0.35932   0.36352   0.36844
 Alpha virt. eigenvalues --    0.37234   0.37282   0.38053   0.38468   0.39235
 Alpha virt. eigenvalues --    0.40161   0.41049   0.41321   0.42333   0.43017
 Alpha virt. eigenvalues --    0.44034   0.44635   0.45574   0.45865   0.46400
 Alpha virt. eigenvalues --    0.47400   0.48105   0.48672   0.49452   0.50140
 Alpha virt. eigenvalues --    0.52557   0.53792   0.59797   0.61834   0.62958
 Alpha virt. eigenvalues --    0.63890   0.67403   0.69202   0.69972   0.70702
 Alpha virt. eigenvalues --    0.71533   0.72155   0.72268   0.73371   0.74723
 Alpha virt. eigenvalues --    0.75235   0.76701   0.77286   0.77322   0.78689
 Alpha virt. eigenvalues --    0.79148   0.79878   0.80888   0.81393   0.81523
 Alpha virt. eigenvalues --    0.82639   0.83447   0.83632   0.85466   0.86097
 Alpha virt. eigenvalues --    0.86541   0.87985   0.89619   0.90798   0.92717
 Alpha virt. eigenvalues --    0.93624   0.94429   0.95888   0.96670   0.98830
 Alpha virt. eigenvalues --    0.99364   1.00260   1.02110   1.03283   1.03805
 Alpha virt. eigenvalues --    1.04250   1.06512   1.09106   1.09397   1.11418
 Alpha virt. eigenvalues --    1.12725   1.13758   1.14056   1.15849   1.17137
 Alpha virt. eigenvalues --    1.18169   1.19024   1.19380   1.20026   1.21070
 Alpha virt. eigenvalues --    1.22301   1.23147   1.24443   1.24602   1.25894
 Alpha virt. eigenvalues --    1.26455   1.27199   1.28654   1.30105   1.30771
 Alpha virt. eigenvalues --    1.31418   1.33036   1.33156   1.36164   1.38758
 Alpha virt. eigenvalues --    1.39739   1.41118   1.41221   1.42135   1.42531
 Alpha virt. eigenvalues --    1.44547   1.45434   1.46150   1.46544   1.47947
 Alpha virt. eigenvalues --    1.48419   1.49930   1.50376   1.51343   1.52939
 Alpha virt. eigenvalues --    1.56222   1.59565   1.62071   1.63443   1.64261
 Alpha virt. eigenvalues --    1.64726   1.66466   1.68196   1.68668   1.69267
 Alpha virt. eigenvalues --    1.69671   1.70064   1.72453   1.73499   1.74200
 Alpha virt. eigenvalues --    1.76809   1.77329   1.78033   1.79762   1.81395
 Alpha virt. eigenvalues --    1.82127   1.83158   1.83361   1.84641   1.84825
 Alpha virt. eigenvalues --    1.86090   1.87059   1.87302   1.88205   1.88851
 Alpha virt. eigenvalues --    1.92725   1.93518   1.94289   1.96279   1.97039
 Alpha virt. eigenvalues --    1.98919   1.98976   2.00189   2.01936   2.02742
 Alpha virt. eigenvalues --    2.03995   2.05311   2.06756   2.07438   2.08052
 Alpha virt. eigenvalues --    2.08895   2.09385   2.09925   2.10546   2.11021
 Alpha virt. eigenvalues --    2.14520   2.15617   2.16847   2.18400   2.19383
 Alpha virt. eigenvalues --    2.20768   2.23846   2.24973   2.25647   2.26295
 Alpha virt. eigenvalues --    2.28027   2.29820   2.30540   2.31349   2.34598
 Alpha virt. eigenvalues --    2.35868   2.39828   2.41919   2.45340   2.46942
 Alpha virt. eigenvalues --    2.48011   2.49073   2.52507   2.56701   2.59505
 Alpha virt. eigenvalues --    2.62165   2.63381   2.64359   2.65915   2.67384
 Alpha virt. eigenvalues --    2.68812   2.69986   2.71525   2.74037   2.75378
 Alpha virt. eigenvalues --    2.76752   2.76998   2.79453   2.82739   2.84255
 Alpha virt. eigenvalues --    2.85924   2.86949   2.93620   2.95700   2.99828
 Alpha virt. eigenvalues --    3.02954   3.06450   3.11209   3.16227   3.16679
 Alpha virt. eigenvalues --    3.20234   3.25235   3.29045   3.34528   3.44162
 Alpha virt. eigenvalues --    3.46661   4.18767   4.28562   4.29324   4.31086
 Alpha virt. eigenvalues --    4.32986   4.36467   4.37065   4.41877   4.42889
 Alpha virt. eigenvalues --    4.43897   4.50242   4.50909   4.54021   4.61940
 Alpha virt. eigenvalues --    4.76222   4.78224   4.83522   5.56534   6.07867
 Alpha virt. eigenvalues --    6.89433
          Condensed to atoms (all electrons):
               1          2          3          4          5          6
     1  C    8.455507  -0.177917  -0.529152   0.987822  -0.943058  -0.573185
     2  C   -0.177917  13.851821  -2.935747  -2.609588   1.376960  -2.372124
     3  C   -0.529152  -2.935747  11.496723  -2.506600  -0.137394   0.351746
     4  C    0.987822  -2.609588  -2.506600  10.771545  -0.224072   0.237415
     5  C   -0.943058   1.376960  -0.137394  -0.224072   8.376611  -1.631150
     6  C   -0.573185  -2.372124   0.351746   0.237415  -1.631150   9.565059
     7  C   -0.596384  -0.465046  -0.289543   0.373320  -0.972784  -0.038879
     8  C   -0.032908   1.108632  -0.577721  -1.105675   0.255605  -0.176660
     9  C   -0.847403   2.059805  -1.585019   0.491380   0.034822  -0.220496
    10  C   -0.028957  -0.405963   0.339064  -0.037636   0.039436  -0.092293
    11  C    0.029187   0.056431   0.017299  -0.013746  -0.003827  -0.008410
    12  C    0.036592  -0.730054   0.406874  -0.044607  -0.036482   0.071447
    13  C    0.585952  -2.494489   1.512344  -0.081886  -0.115371   0.448010
    14  C    0.003904  -0.141441  -0.001447   0.006190   0.000216   0.007308
    15  F   -0.000004  -0.000456   0.001797   0.000197   0.000001  -0.000007
    16  F   -0.000077   0.000212  -0.000456  -0.000065   0.000003  -0.000013
    17  F    0.000494   0.002273  -0.000356  -0.000006   0.000000   0.000017
    18  N   -0.234671   0.208709  -0.047948   0.060876  -0.023502   0.045817
    19  O    0.102120  -0.007191   0.003960  -0.003824   0.128633   0.007723
    20  O   -0.014707  -0.173438  -0.009198  -0.012661   0.051598   0.054199
    21  H    0.046850  -0.047487   0.320449   0.014803   0.000170  -0.012948
    22  H   -0.010844  -0.014898  -0.020072   0.308362   0.021570   0.020806
    23  H    0.021261  -0.002149   0.018589  -0.001030   0.268351   0.002070
    24  H   -0.047771   0.035858  -0.000286  -0.005581   0.039820   0.303840
    25  H    0.000903  -0.007182   0.008074   0.000445   0.000067  -0.001020
    26  H   -0.000080   0.001178  -0.000529   0.000013   0.000002  -0.000002
    27  H    0.000554   0.000903  -0.000574  -0.000555  -0.000099   0.000035
    28  H   -0.007476  -0.054762   0.032772   0.004737  -0.002874   0.004465
    29  H    0.003974  -0.109333   0.072109   0.008617  -0.000554   0.004820
    30  H    0.022320   0.006059   0.004995   0.001132  -0.011696   0.002252
               7          8          9         10         11         12
     1  C   -0.596384  -0.032908  -0.847403  -0.028957   0.029187   0.036592
     2  C   -0.465046   1.108632   2.059805  -0.405963   0.056431  -0.730054
     3  C   -0.289543  -0.577721  -1.585019   0.339064   0.017299   0.406874
     4  C    0.373320  -1.105675   0.491380  -0.037636  -0.013746  -0.044607
     5  C   -0.972784   0.255605   0.034822   0.039436  -0.003827  -0.036482
     6  C   -0.038879  -0.176660  -0.220496  -0.092293  -0.008410   0.071447
     7  C    7.675456  -0.313514  -0.164293  -0.065201   0.012667   0.046968
     8  C   -0.313514  19.188229 -10.535637   0.596454  -0.667086   0.512389
     9  C   -0.164293 -10.535637  35.319963  -5.914476  -5.298641  -2.124849
    10  C   -0.065201   0.596454  -5.914476  14.206445   0.127926   0.615646
    11  C    0.012667  -0.667086  -5.298641   0.127926  12.477351  -0.522392
    12  C    0.046968   0.512389  -2.124849   0.615646  -0.522392   9.381623
    13  C    0.142871  -0.072119  -7.733897  -0.656690   0.193202  -0.893180
    14  C   -0.014244  -2.204454   2.438112  -1.940777  -0.250338  -0.526982
    15  F    0.000005   0.033367  -0.035695   0.217392  -0.220597   0.019583
    16  F    0.000000   0.056612  -0.056094   0.166432  -0.183395   0.043170
    17  F    0.000174   0.198170  -0.077613  -0.085251  -0.011383   0.005349
    18  N   -0.067729  -0.970174   1.097735  -0.027806  -0.008599   0.020123
    19  O   -0.170204   0.015547  -0.012064   0.000730   0.000032   0.000406
    20  O    0.260098   0.101741  -0.088266   0.020473  -0.000753   0.000510
    21  H    0.009329  -0.033885  -0.053651  -0.012276   0.000846   0.004020
    22  H    0.000305   0.004016   0.000493   0.000290  -0.000154  -0.000252
    23  H    0.002360   0.000778   0.000159  -0.000004   0.000002  -0.000030
    24  H   -0.032342   0.002701   0.000331   0.000060  -0.000002  -0.000082
    25  H    0.001711   0.160404  -0.033533   0.095965   0.014364  -0.006712
    26  H    0.000006   0.019563   0.044785   0.085212   0.188618   0.000767
    27  H    0.000019  -0.027974  -0.012181   0.016027   0.039610   0.272471
    28  H   -0.000545  -0.045463   0.134576   0.025380  -0.011777  -0.008662
    29  H   -0.014471  -0.044122  -0.046511   0.052134   0.006662  -0.003910
    30  H   -0.002359  -0.000598  -0.000098  -0.000048   0.000003  -0.000005
              13         14         15         16         17         18
     1  C    0.585952   0.003904  -0.000004  -0.000077   0.000494  -0.234671
     2  C   -2.494489  -0.141441  -0.000456   0.000212   0.002273   0.208709
     3  C    1.512344  -0.001447   0.001797  -0.000456  -0.000356  -0.047948
     4  C   -0.081886   0.006190   0.000197  -0.000065  -0.000006   0.060876
     5  C   -0.115371   0.000216   0.000001   0.000003   0.000000  -0.023502
     6  C    0.448010   0.007308  -0.000007  -0.000013   0.000017   0.045817
     7  C    0.142871  -0.014244   0.000005   0.000000   0.000174  -0.067729
     8  C   -0.072119  -2.204454   0.033367   0.056612   0.198170  -0.970174
     9  C   -7.733897   2.438112  -0.035695  -0.056094  -0.077613   1.097735
    10  C   -0.656690  -1.940777   0.217392   0.166432  -0.085251  -0.027806
    11  C    0.193202  -0.250338  -0.220597  -0.183395  -0.011383  -0.008599
    12  C   -0.893180  -0.526982   0.019583   0.043170   0.005349   0.020123
    13  C   14.320420   0.081641  -0.006819  -0.012810   0.019098  -0.358122
    14  C    0.081641   6.765332   0.117276   0.107238   0.046061   0.010581
    15  F   -0.006819   0.117276   9.233063  -0.056605  -0.037930   0.000627
    16  F   -0.012810   0.107238  -0.056605   9.244728  -0.034427  -0.000265
    17  F    0.019098   0.046061  -0.037930  -0.034427   9.300253  -0.001171
    18  N   -0.358122   0.010581   0.000627  -0.000265  -0.001171   7.645487
    19  O    0.006455  -0.000006   0.000000   0.000000   0.000000  -0.007657
    20  O    0.043096   0.000652   0.000000   0.000000   0.000001  -0.005092
    21  H    0.069566  -0.001357   0.000000   0.000000   0.000000  -0.007059
    22  H   -0.002209   0.000006   0.000000   0.000000   0.000000  -0.000771
    23  H   -0.000402   0.000000   0.000000   0.000000   0.000000   0.000226
    24  H   -0.001042   0.000000   0.000000   0.000000   0.000000  -0.000781
    25  H    0.074946  -0.006546  -0.000087   0.000126   0.007345  -0.017357
    26  H   -0.026066  -0.016091   0.000369   0.001296   0.000279  -0.000124
    27  H    0.016916   0.003912   0.000007   0.000012   0.000016  -0.000374
    28  H    0.213297   0.008518   0.000001   0.000002   0.000000   0.004174
    29  H    0.037406   0.003507   0.000000   0.000000   0.000002   0.199803
    30  H    0.000035  -0.000002   0.000000   0.000000   0.000000  -0.000544
              19         20         21         22         23         24
     1  C    0.102120  -0.014707   0.046850  -0.010844   0.021261  -0.047771
     2  C   -0.007191  -0.173438  -0.047487  -0.014898  -0.002149   0.035858
     3  C    0.003960  -0.009198   0.320449  -0.020072   0.018589  -0.000286
     4  C   -0.003824  -0.012661   0.014803   0.308362  -0.001030  -0.005581
     5  C    0.128633   0.051598   0.000170   0.021570   0.268351   0.039820
     6  C    0.007723   0.054199  -0.012948   0.020806   0.002070   0.303840
     7  C   -0.170204   0.260098   0.009329   0.000305   0.002360  -0.032342
     8  C    0.015547   0.101741  -0.033885   0.004016   0.000778   0.002701
     9  C   -0.012064  -0.088266  -0.053651   0.000493   0.000159   0.000331
    10  C    0.000730   0.020473  -0.012276   0.000290  -0.000004   0.000060
    11  C    0.000032  -0.000753   0.000846  -0.000154   0.000002  -0.000002
    12  C    0.000406   0.000510   0.004020  -0.000252  -0.000030  -0.000082
    13  C    0.006455   0.043096   0.069566  -0.002209  -0.000402  -0.001042
    14  C   -0.000006   0.000652  -0.001357   0.000006   0.000000   0.000000
    15  F    0.000000   0.000000   0.000000   0.000000   0.000000   0.000000
    16  F    0.000000   0.000000   0.000000   0.000000   0.000000   0.000000
    17  F    0.000000   0.000001   0.000000   0.000000   0.000000   0.000000
    18  N   -0.007657  -0.005092  -0.007059  -0.000771   0.000226  -0.000781
    19  O    8.619406  -0.147835   0.000040   0.000007   0.000004   0.005083
    20  O   -0.147835   8.427252  -0.000007  -0.000001   0.000026  -0.000279
    21  H    0.000040  -0.000007   0.465339  -0.003515  -0.000135   0.000012
    22  H    0.000007  -0.000001  -0.003515   0.458010  -0.002883  -0.000140
    23  H    0.000004   0.000026  -0.000135  -0.002883   0.456805  -0.003078
    24  H    0.005083  -0.000279   0.000012  -0.000140  -0.003078   0.443000
    25  H   -0.000001  -0.000325   0.000002   0.000000   0.000000   0.000000
    26  H    0.000000   0.000000   0.000000   0.000000   0.000000   0.000000
    27  H    0.000000   0.000000  -0.000006   0.000000   0.000000   0.000000
    28  H    0.000002   0.000003  -0.001892   0.000002   0.000000   0.000000
    29  H    0.002271   0.053988  -0.000031   0.000002   0.000000  -0.000003
    30  H    0.141857   0.007588   0.000000   0.000000   0.000000   0.000090
              25         26         27         28         29         30
     1  C    0.000903  -0.000080   0.000554  -0.007476   0.003974   0.022320
     2  C   -0.007182   0.001178   0.000903  -0.054762  -0.109333   0.006059
     3  C    0.008074  -0.000529  -0.000574   0.032772   0.072109   0.004995
     4  C    0.000445   0.000013  -0.000555   0.004737   0.008617   0.001132
     5  C    0.000067   0.000002  -0.000099  -0.002874  -0.000554  -0.011696
     6  C   -0.001020  -0.000002   0.000035   0.004465   0.004820   0.002252
     7  C    0.001711   0.000006   0.000019  -0.000545  -0.014471  -0.002359
     8  C    0.160404   0.019563  -0.027974  -0.045463  -0.044122  -0.000598
     9  C   -0.033533   0.044785  -0.012181   0.134576  -0.046511  -0.000098
    10  C    0.095965   0.085212   0.016027   0.025380   0.052134  -0.000048
    11  C    0.014364   0.188618   0.039610  -0.011777   0.006662   0.000003
    12  C   -0.006712   0.000767   0.272471  -0.008662  -0.003910  -0.000005
    13  C    0.074946  -0.026066   0.016916   0.213297   0.037406   0.000035
    14  C   -0.006546  -0.016091   0.003912   0.008518   0.003507  -0.000002
    15  F   -0.000087   0.000369   0.000007   0.000001   0.000000   0.000000
    16  F    0.000126   0.001296   0.000012   0.000002   0.000000   0.000000
    17  F    0.007345   0.000279   0.000016   0.000000   0.000002   0.000000
    18  N   -0.017357  -0.000124  -0.000374   0.004174   0.199803  -0.000544
    19  O   -0.000001   0.000000   0.000000   0.000002   0.002271   0.141857
    20  O   -0.000325   0.000000   0.000000   0.000003   0.053988   0.007588
    21  H    0.000002   0.000000  -0.000006  -0.001892  -0.000031   0.000000
    22  H    0.000000   0.000000   0.000000   0.000002   0.000002   0.000000
    23  H    0.000000   0.000000   0.000000   0.000000   0.000000   0.000000
    24  H    0.000000   0.000000   0.000000   0.000000  -0.000003   0.000090
    25  H    0.440849  -0.000107   0.000013  -0.000123   0.003066   0.000000
    26  H   -0.000107   0.443369  -0.003095  -0.000108   0.000000   0.000000
    27  H    0.000013  -0.003095   0.450380  -0.003018   0.000002   0.000000
    28  H   -0.000123  -0.000108  -0.003018   0.447844  -0.000085   0.000000
    29  H    0.003066   0.000000   0.000002  -0.000085   0.265249  -0.000004
    30  H    0.000000   0.000000   0.000000   0.000000  -0.000004   0.250699
 Mulliken charges:
               1
     1  C   -0.252843
     2  C    0.040423
     3  C    0.055249
     4  C   -0.619323
     5  C   -0.491000
     6  C    0.000159
     7  C    0.682250
     8  C    0.553779
     9  C   -0.781744
    10  C   -1.337687
    11  C    0.036900
    12  C   -0.539741
    13  C    0.689849
    14  C    1.503230
    15  F   -0.265486
    16  F   -0.275624
    17  F   -0.331393
    18  N   -0.514413
    19  O   -0.685494
    20  O   -0.568662
    21  H    0.242824
    22  H    0.241870
    23  H    0.239077
    24  H    0.260592
    25  H    0.264714
    26  H    0.260745
    27  H    0.247001
    28  H    0.261012
    29  H    0.505414
    30  H    0.578325
 Sum of Mulliken charges =   0.00000
 Mulliken charges with hydrogens summed into heavy atoms:
               1
     1  C   -0.252843
     2  C    0.040423
     3  C    0.298072
     4  C   -0.377453
     5  C   -0.251924
     6  C    0.260751
     7  C    0.682250
     8  C    0.553779
     9  C   -0.517030
    10  C   -1.337687
    11  C    0.297644
    12  C   -0.292740
    13  C    0.950861
    14  C    1.503230
    15  F   -0.265486
    16  F   -0.275624
    17  F   -0.331393
    18  N   -0.008999
    19  O   -0.107169
    20  O   -0.568662
 Electronic spatial extent (au):  <R**2>=           7272.1471
 Charge=              0.0000 electrons
 Dipole moment (field-independent basis, Debye):
    X=             -4.4670    Y=              0.3289    Z=              0.7280  Tot=              4.5379
 Quadrupole moment (field-independent basis, Debye-Ang):
   XX=           -118.3947   YY=            -96.6086   ZZ=           -114.4513
   XY=              2.2139   XZ=             -3.2292   YZ=             -4.3323
 Traceless Quadrupole moment (field-independent basis, Debye-Ang):
   XX=             -8.5765   YY=             13.2096   ZZ=             -4.6331
   XY=              2.2139   XZ=             -3.2292   YZ=             -4.3323
 Octapole moment (field-independent basis, Debye-Ang**2):
  XXX=             22.8179  YYY=             19.9491  ZZZ=            -17.2676  XYY=             -6.6220
  XXY=             31.2074  XXZ=             21.7580  XZZ=             12.2166  YZZ=              7.7909
  YYZ=            -36.4505  XYZ=              8.7011
 Hexadecapole moment (field-independent basis, Debye-Ang**3):
 XXXX=          -4936.6175 YYYY=          -2914.2588 ZZZZ=           -706.9754 XXXY=           1428.2872
 XXXZ=            225.2117 YYYX=           1241.0712 YYYZ=           -171.4778 ZZZX=            352.8147
 ZZZY=            -29.4466 XXYY=          -1365.8384 XXZZ=           -860.4308 YYZZ=           -672.8399
 XXYZ=             14.8117 YYXZ=            186.3655 ZZXY=            450.8155
 N-N= 1.484823207857D+03 E-N=-5.412822630982D+03  KE= 1.034793485105D+03
 No NMR shielding tensors so no spin-rotation constants.
 Leave Link  601 at Fri Oct 20 13:24:17 2017, MaxMem=   196608000 cpu:         0.3
 (Enter /usr/local/g09_d01/l602.exe)
 FitSet:  NAtFit=    30 NAtPot=    30 NAtFrz=     0 MDM=    34 TotChg=   0.00000
 Breneman (CHELPG) radii used.
 Generate Potential Derived Charges using the Breneman model, NDens= 1.
 Grid spacing= 0.300 Box extension= 2.800
 NStep X,Y,Z=   51     50     35   Total possible points=       89250
 Number of Points to Fit=   18174

 **********************************************************************

            Electrostatic Properties Using The SCF Density

 **********************************************************************

       Atomic Center    1 is at  -2.437697  2.242389  0.116194
       Atomic Center    2 is at  -1.865308  0.963971  0.384773
       Atomic Center    3 is at  -2.480245  0.165417  1.370856
       Atomic Center    4 is at  -3.623981  0.589910  2.023806
       Atomic Center    5 is at  -4.209716  1.826119  1.731958
       Atomic Center    6 is at  -3.603774  2.639430  0.792219
       Atomic Center    7 is at  -1.806602  3.162851 -0.834726
       Atomic Center    8 is at  -0.069862 -0.662242 -0.206932
       Atomic Center    9 is at   1.331924 -0.662242 -0.206932
       Atomic Center   10 is at   2.030330 -1.863245 -0.206932
       Atomic Center   11 is at   1.356170 -3.085000 -0.192072
       Atomic Center   12 is at  -0.034158 -3.083897 -0.202477
       Atomic Center   13 is at  -0.746763 -1.888320 -0.223698
       Atomic Center   14 is at   3.532680 -1.869943 -0.194589
       Atomic Center   15 is at   4.017739 -2.374684  0.960131
       Atomic Center   16 is at   4.035003 -2.635969 -1.184894
       Atomic Center   17 is at   4.058600 -0.641617 -0.337932
       Atomic Center   18 is at  -0.729545  0.567369 -0.275527
       Atomic Center   19 is at  -2.493456  4.301972 -1.023063
       Atomic Center   20 is at  -0.751187  2.967550 -1.426893
       Atomic Center   21 is at  -2.030811 -0.782270  1.645033
       Atomic Center   22 is at  -4.061879 -0.052147  2.784486
       Atomic Center   23 is at  -5.110774  2.149580  2.243802
       Atomic Center   24 is at  -4.020674  3.614335  0.563257
       Atomic Center   25 is at   1.867202  0.282505 -0.202276
       Atomic Center   26 is at   1.911131 -4.018318 -0.186010
       Atomic Center   27 is at  -0.574419 -4.026641 -0.217453
       Atomic Center   28 is at  -1.830317 -1.905290 -0.287238
       Atomic Center   29 is at  -0.289181  1.312938 -0.813132
       Atomic Center   30 is at  -2.037978  4.856997 -1.675472
   18174 points will be used for fitting atomic charges
 Fitting point charges to electrostatic potential
 Charges from ESP fit, RMS=   0.00411 RRMS=   0.29974:
 ESP charges:
               1
     1  C   -0.309768
     2  C    0.553785
     3  C   -0.298200
     4  C    0.004055
     5  C   -0.230419
     6  C   -0.027194
     7  C    0.797399
     8  C    0.504894
     9  C   -0.273224
    10  C   -0.025172
    11  C   -0.202486
    12  C   -0.035210
    13  C   -0.242690
    14  C    0.664779
    15  F   -0.245666
    16  F   -0.243001
    17  F   -0.220015
    18  N   -0.890945
    19  O   -0.656307
    20  O   -0.662302
    21  H    0.121878
    22  H    0.112243
    23  H    0.129097
    24  H    0.133000
    25  H    0.158583
    26  H    0.153002
    27  H    0.114846
    28  H    0.144676
    29  H    0.485068
    30  H    0.485294
 Sum of ESP charges =   0.00000
 ESP charges with hydrogens summed into heavy atoms:
               1
     1  C   -0.309768
     2  C    0.553785
     3  C   -0.176322
     4  C    0.116298
     5  C   -0.101323
     6  C    0.105806
     7  C    0.797399
     8  C    0.504894
     9  C   -0.114641
    10  C   -0.025172
    11  C   -0.049484
    12  C    0.079636
    13  C   -0.098014
    14  C    0.664779
    15  F   -0.245666
    16  F   -0.243001
    17  F   -0.220015
    18  N   -0.405877
    19  O   -0.171013
    20  O   -0.662302
 Charge=   0.00000 Dipole=    -4.6378     0.3713     0.7199 Tot=     4.7080
 -----------------------------------------------------------------

              Electrostatic Properties (Atomic Units)

 -----------------------------------------------------------------
    Center     Electric         -------- Electric Field --------
               Potential          X             Y             Z
 -----------------------------------------------------------------
    1 Atom    -14.706364
    2 Atom    -14.660164
    3 Atom    -14.720359
    4 Atom    -14.710522
    5 Atom    -14.725244
    6 Atom    -14.714607
    7 Atom    -14.584306
    8 Atom    -14.666925
    9 Atom    -14.710307
   10 Atom    -14.697886
   11 Atom    -14.711716
   12 Atom    -14.707647
   13 Atom    -14.710097
   14 Atom    -14.471642
   15 Atom    -26.498583
   16 Atom    -26.497441
   17 Atom    -26.492133
   18 Atom    -18.292094
   19 Atom    -22.229629
   20 Atom    -22.299030
   21 Atom     -1.077572
   22 Atom     -1.076574
   23 Atom     -1.083692
   24 Atom     -1.083557
   25 Atom     -1.070355
   26 Atom     -1.073351
   27 Atom     -1.071733
   28 Atom     -1.069819
   29 Atom     -1.004971
   30 Atom     -0.910512
 -----------------------------------------------------------------
 Leave Link  602 at Fri Oct 20 13:24:22 2017, MaxMem=   196608000 cpu:         5.7
 (Enter /usr/local/g09_d01/l9999.exe)
 1\1\GINC-NODE3\SP\RPBE1PBE\6-31+G(d)\C14H10F3N1O2\DCASE\20-Oct-2017\0\
 \#PBE1PBE/6-31+G(d) density=current FormCheck=All SCRF=(PCM,Read,G03De
 faults) #Pop=ChelpG nosymm\\Charge density of molecule 1\\0,1\C,0,-2.4
 37697,2.242389,0.116194\C,0,-1.865308,0.963971,0.384773\C,0,-2.480245,
 0.165417,1.370856\C,0,-3.623981,0.58991,2.023806\C,0,-4.209716,1.82611
 9,1.731958\C,0,-3.603774,2.63943,0.792219\C,0,-1.806602,3.162851,-0.83
 4726\C,0,-0.069862,-0.662242,-0.206932\C,0,1.331924,-0.662242,-0.20693
 2\C,0,2.03033,-1.863245,-0.206932\C,0,1.35617,-3.085,-0.192072\C,0,-0.
 034158,-3.083897,-0.202477\C,0,-0.746763,-1.88832,-0.223698\C,0,3.5326
 8,-1.869943,-0.194589\F,0,4.017739,-2.374684,0.960131\F,0,4.035003,-2.
 635969,-1.184894\F,0,4.0586,-0.641617,-0.337932\N,0,-0.729545,0.567369
 ,-0.275527\O,0,-2.493456,4.301972,-1.023063\O,0,-0.751187,2.96755,-1.4
 26893\H,0,-2.030811,-0.78227,1.645033\H,0,-4.061879,-0.052147,2.784486
 \H,0,-5.110774,2.14958,2.243802\H,0,-4.020674,3.614335,0.563257\H,0,1.
 867202,0.282505,-0.202276\H,0,1.911131,-4.018318,-0.18601\H,0,-0.57441
 9,-4.026641,-0.217453\H,0,-1.830317,-1.90529,-0.287238\H,0,-0.289181,1
 .312938,-0.813132\H,0,-2.037978,4.856997,-1.675472\\Version=ES64L-G09R
 evD.01\HF=-1043.208867\RMSD=5.847e-09\Dipole=-1.7574688,0.1294151,0.28
 64232\Quadrupole=-6.3764127,9.8210177,-3.444605,1.645976,-2.4008632,-3
 .2209856\PG=C01 [X(C14H10F3N1O2)]\\@


 ADAM SMITH SAID, "THE REAL PRICE OF ANYTHING IS THE TOIL AND TROUBLE
 OF ACQUIRING IT."  BUT IN ALL UNDERTAKINGS WITH NATURE WE SHOULD FIRST
 READ CAREFULLY THE SMALL PRINT IN THE CONTRACT. THIS MIGHT DISCLOSE
 THAT THE REAL PRICE IS TO BE PAID BY THOSE WHO INHERIT THE DEPLETION
 AND DESPOILATION THAT FOLLOWS.
                               -- E. R. HARRISON IN "COSMOLOGY" (1980)
 Job cpu time:       0 days  0 hours 11 minutes 34.7 seconds.
 File lengths (MBytes):  RWF=    206 Int=      0 D2E=      0 Chk=      8 Scr=      1
 Normal termination of Gaussian 09 at Fri Oct 20 13:24:23 2017.
