 Entering Gaussian System, Link 0=/usr/local/g09_d01/g09
 Input=act_mult3.com
 Output=act_mult3.log
 Initial command:
 /usr/local/g09_d01/l1.exe "/tmp/696468.1.all.q/Gau-22562.inp" -scrdir="/tmp/696468.1.all.q/"
 Entering Link 1 = /usr/local/g09_d01/l1.exe PID=     22564.
  
 Copyright (c) 1988,1990,1992,1993,1995,1998,2003,2009,2013,
            Gaussian, Inc.  All Rights Reserved.
  
 This is part of the Gaussian(R) 09 program.  It is based on
 the Gaussian(R) 03 system (copyright 2003, Gaussian, Inc.),
 the Gaussian(R) 98 system (copyright 1998, Gaussian, Inc.),
 the Gaussian(R) 94 system (copyright 1995, Gaussian, Inc.),
 the Gaussian 92(TM) system (copyright 1992, Gaussian, Inc.),
 the Gaussian 90(TM) system (copyright 1990, Gaussian, Inc.),
 the Gaussian 88(TM) system (copyright 1988, Gaussian, Inc.),
 the Gaussian 86(TM) system (copyright 1986, Carnegie Mellon
 University), and the Gaussian 82(TM) system (copyright 1983,
 Carnegie Mellon University). Gaussian is a federally registered
 trademark of Gaussian, Inc.
  
 This software contains proprietary and confidential information,
 including trade secrets, belonging to Gaussian, Inc.
  
 This software is provided under written license and may be
 used, copied, transmitted, or stored only in accord with that
 written license.
  
 The following legend is applicable only to US Government
 contracts under FAR:
  
                    RESTRICTED RIGHTS LEGEND
  
 Use, reproduction and disclosure by the US Government is
 subject to restrictions as set forth in subparagraphs (a)
 and (c) of the Commercial Computer Software - Restricted
 Rights clause in FAR 52.227-19.
  
 Gaussian, Inc.
 340 Quinnipiac St., Bldg. 40, Wallingford CT 06492
  
  
 ---------------------------------------------------------------
 Warning -- This program may not be used in any manner that
 competes with the business of Gaussian, Inc. or will provide
 assistance to any competitor of Gaussian, Inc.  The licensee
 of this program is prohibited from giving any competitor of
 Gaussian, Inc. access to this program.  By using this program,
 the user acknowledges that Gaussian, Inc. is engaged in the
 business of creating and licensing software in the field of
 computational chemistry and represents and warrants to the
 licensee that it is not a competitor of Gaussian, Inc. and that
 it will not use this program in any manner prohibited above.
 ---------------------------------------------------------------
  

 Cite this work as:
 Gaussian 09, Revision D.01,
 M. J. Frisch, G. W. Trucks, H. B. Schlegel, G. E. Scuseria, 
 M. A. Robb, J. R. Cheeseman, G. Scalmani, V. Barone, B. Mennucci, 
 G. A. Petersson, H. Nakatsuji, M. Caricato, X. Li, H. P. Hratchian, 
 A. F. Izmaylov, J. Bloino, G. Zheng, J. L. Sonnenberg, M. Hada, 
 M. Ehara, K. Toyota, R. Fukuda, J. Hasegawa, M. Ishida, T. Nakajima, 
 Y. Honda, O. Kitao, H. Nakai, T. Vreven, J. A. Montgomery, Jr., 
 J. E. Peralta, F. Ogliaro, M. Bearpark, J. J. Heyd, E. Brothers, 
 K. N. Kudin, V. N. Staroverov, T. Keith, R. Kobayashi, J. Normand, 
 K. Raghavachari, A. Rendell, J. C. Burant, S. S. Iyengar, J. Tomasi, 
 M. Cossi, N. Rega, J. M. Millam, M. Klene, J. E. Knox, J. B. Cross, 
 V. Bakken, C. Adamo, J. Jaramillo, R. Gomperts, R. E. Stratmann, 
 O. Yazyev, A. J. Austin, R. Cammi, C. Pomelli, J. W. Ochterski, 
 R. L. Martin, K. Morokuma, V. G. Zakrzewski, G. A. Voth, 
 P. Salvador, J. J. Dannenberg, S. Dapprich, A. D. Daniels, 
 O. Farkas, J. B. Foresman, J. V. Ortiz, J. Cioslowski, 
 and D. J. Fox, Gaussian, Inc., Wallingford CT, 2013.
 
 ******************************************
 Gaussian 09:  ES64L-G09RevD.01 24-Apr-2013
                20-Oct-2017 
 ******************************************
 %mem=1500MB
 %Nprocs= 1
 Will use up to    1 processors via shared memory.
 %rwf=a,1800MB,b,1800MB,c,1800MB,d,7200MB,e,7200MB,f,7200MB,g,7200MB,h,7200MB,j,1
 4400MB
 %nosave
 %chk=obs
 ----------------------------------------------------------------------
 #PBE1PBE/6-31+G(d) density=current FormCheck=All SCRF=(PCM,Read,G03Def
 aults) #Pop=ChelpG nosymm
 ----------------------------------------------------------------------
 1/30=1,38=1,40=2/1;
 2/12=2,15=1,17=6,18=5,40=1/2;
 3/5=1,6=6,7=11,11=2,16=1,25=1,30=1,70=302203,72=1,74=-13/1,2,3;
 4//1;
 5/5=2,38=5/2;
 6/7=2,8=2,9=2,10=2,15=8,20=3,22=-1,28=1/1,2;
 99/5=1,9=1/99;
 Leave Link    1 at Fri Oct 20 13:24:23 2017, MaxMem=   196608000 cpu:         0.1
 (Enter /usr/local/g09_d01/l101.exe)
 ----------------------------
 Charge density of molecule 1
 ----------------------------
 Symbolic Z-matrix:
 Charge =  0 Multiplicity = 1
 C                    -1.8924    2.52916  -0.02327 
 C                    -1.13965   1.38008  -0.40311 
 C                    -0.18979   1.52638  -1.43463 
 C                     0.02861   2.75404  -2.03412 
 C                    -0.68819   3.88995  -1.6422 
 C                    -1.64411   3.7615   -0.65166 
 C                    -2.93818   2.43784   1.00003 
 C                    -0.62905  -1.00582   0.13989 
 C                     0.76915  -1.00582   0.13989 
 C                     1.46447  -2.2137    0.13989 
 C                     0.79297  -3.43281   0.16683 
 C                    -0.60057  -3.42984   0.19809 
 C                    -1.30601  -2.2343    0.17526 
 C                     2.9656   -2.16509   0.10478 
 F                     3.42031  -1.71574  -1.08633 
 F                     3.4636   -1.33018   1.03954 
 F                     3.52629  -3.36915   0.30829 
 N                    -1.38799   0.16772   0.1852 
 O                    -3.52967   3.6131    1.27797 
 O                    -3.29622   1.41379   1.57115 
 H                     0.35528   0.65608  -1.78376 
 H                     0.76476   2.82454  -2.8313 
 H                    -0.50888   4.85061  -2.11498 
 H                    -2.22916   4.62093  -0.34218 
 H                     1.31425  -0.0675    0.17125 
 H                     1.34683  -4.36533   0.17128 
 H                    -1.14193  -4.37147   0.22684 
 H                    -2.3933   -2.23707   0.17886 
 H                    -2.17993   0.15952   0.82572 
 H                    -4.24384   3.45667   1.91642 
 
 NAtoms=     30 NQM=       30 NQMF=       0 NMMI=      0 NMMIF=      0
                NMic=       0 NMicF=      0.
                    Isotopes and Nuclear Properties:
 (Nuclear quadrupole moments (NQMom) in fm**2, nuclear magnetic moments (NMagM)
  in nuclear magnetons)

  Atom         1           2           3           4           5           6           7           8           9          10
 IAtWgt=          12          12          12          12          12          12          12          12          12          12
 AtmWgt=  12.0000000  12.0000000  12.0000000  12.0000000  12.0000000  12.0000000  12.0000000  12.0000000  12.0000000  12.0000000
 NucSpn=           0           0           0           0           0           0           0           0           0           0
 AtZEff=   0.0000000   0.0000000   0.0000000   0.0000000   0.0000000   0.0000000   0.0000000   0.0000000   0.0000000   0.0000000
 NQMom=    0.0000000   0.0000000   0.0000000   0.0000000   0.0000000   0.0000000   0.0000000   0.0000000   0.0000000   0.0000000
 NMagM=    0.0000000   0.0000000   0.0000000   0.0000000   0.0000000   0.0000000   0.0000000   0.0000000   0.0000000   0.0000000
 AtZNuc=   6.0000000   6.0000000   6.0000000   6.0000000   6.0000000   6.0000000   6.0000000   6.0000000   6.0000000   6.0000000

  Atom        11          12          13          14          15          16          17          18          19          20
 IAtWgt=          12          12          12          12          19          19          19          14          16          16
 AtmWgt=  12.0000000  12.0000000  12.0000000  12.0000000  18.9984033  18.9984033  18.9984033  14.0030740  15.9949146  15.9949146
 NucSpn=           0           0           0           0           1           1           1           2           0           0
 AtZEff=   0.0000000   0.0000000   0.0000000   0.0000000   0.0000000   0.0000000   0.0000000   0.0000000   0.0000000   0.0000000
 NQMom=    0.0000000   0.0000000   0.0000000   0.0000000   0.0000000   0.0000000   0.0000000   2.0440000   0.0000000   0.0000000
 NMagM=    0.0000000   0.0000000   0.0000000   0.0000000   2.6288670   2.6288670   2.6288670   0.4037610   0.0000000   0.0000000
 AtZNuc=   6.0000000   6.0000000   6.0000000   6.0000000   9.0000000   9.0000000   9.0000000   7.0000000   8.0000000   8.0000000

  Atom        21          22          23          24          25          26          27          28          29          30
 IAtWgt=           1           1           1           1           1           1           1           1           1           1
 AtmWgt=   1.0078250   1.0078250   1.0078250   1.0078250   1.0078250   1.0078250   1.0078250   1.0078250   1.0078250   1.0078250
 NucSpn=           1           1           1           1           1           1           1           1           1           1
 AtZEff=   0.0000000   0.0000000   0.0000000   0.0000000   0.0000000   0.0000000   0.0000000   0.0000000   0.0000000   0.0000000
 NQMom=    0.0000000   0.0000000   0.0000000   0.0000000   0.0000000   0.0000000   0.0000000   0.0000000   0.0000000   0.0000000
 NMagM=    2.7928460   2.7928460   2.7928460   2.7928460   2.7928460   2.7928460   2.7928460   2.7928460   2.7928460   2.7928460
 AtZNuc=   1.0000000   1.0000000   1.0000000   1.0000000   1.0000000   1.0000000   1.0000000   1.0000000   1.0000000   1.0000000
 Leave Link  101 at Fri Oct 20 13:24:23 2017, MaxMem=   196608000 cpu:         0.2
 (Enter /usr/local/g09_d01/l202.exe)
                          Input orientation:                          
 ---------------------------------------------------------------------
 Center     Atomic      Atomic             Coordinates (Angstroms)
 Number     Number       Type             X           Y           Z
 ---------------------------------------------------------------------
      1          6           0       -1.892400    2.529157   -0.023267
      2          6           0       -1.139647    1.380078   -0.403113
      3          6           0       -0.189793    1.526381   -1.434629
      4          6           0        0.028606    2.754042   -2.034122
      5          6           0       -0.688185    3.889950   -1.642199
      6          6           0       -1.644112    3.761501   -0.651655
      7          6           0       -2.938175    2.437843    1.000031
      8          6           0       -0.629045   -1.005818    0.139887
      9          6           0        0.769145   -1.005818    0.139887
     10          6           0        1.464472   -2.213697    0.139887
     11          6           0        0.792973   -3.432813    0.166828
     12          6           0       -0.600571   -3.429842    0.198092
     13          6           0       -1.306014   -2.234302    0.175263
     14          6           0        2.965603   -2.165091    0.104775
     15          9           0        3.420306   -1.715741   -1.086326
     16          9           0        3.463603   -1.330180    1.039539
     17          9           0        3.526294   -3.369146    0.308289
     18          7           0       -1.387985    0.167720    0.185199
     19          8           0       -3.529669    3.613104    1.277974
     20          8           0       -3.296218    1.413787    1.571152
     21          1           0        0.355284    0.656077   -1.783760
     22          1           0        0.764760    2.824539   -2.831299
     23          1           0       -0.508883    4.850609   -2.114982
     24          1           0       -2.229164    4.620929   -0.342179
     25          1           0        1.314249   -0.067503    0.171245
     26          1           0        1.346834   -4.365335    0.171277
     27          1           0       -1.141931   -4.371474    0.226844
     28          1           0       -2.393302   -2.237068    0.178864
     29          1           0       -2.179927    0.159518    0.825724
     30          1           0       -4.243840    3.456667    1.916424
 ---------------------------------------------------------------------
                    Distance matrix (angstroms):
                    1          2          3          4          5
     1  C    0.000000
     2  C    1.425238   0.000000
     3  C    2.428245   1.409841   0.000000
     4  C    2.790049   2.431621   1.383561   0.000000
     5  C    2.433687   2.835244   2.424446   1.399171   0.000000
     6  C    1.405415   2.446923   2.779182   2.392525   1.382560
     7  C    1.465989   2.514435   3.783112   4.255333   3.761974
     8  C    3.757490   2.499613   3.013980   4.392649   5.210362
     9  C    4.427922   3.103359   3.132203   4.405821   5.410008
    10  C    5.812906   4.471186   4.382223   5.609497   6.712993
    11  C    6.541594   5.217641   5.303216   6.611022   7.686954
    12  C    6.101434   4.877231   5.234373   6.604473   7.548093
    13  C    4.803520   3.664142   4.240335   5.616598   6.418048
    14  C    6.756667   5.447867   5.094434   6.115448   7.284614
    15  F    6.882884   5.553742   4.864718   5.690422   6.972264
    16  F    6.686614   5.533232   5.256306   6.158528   7.188798
    17  F    8.016368   6.695687   6.388525   7.430622   8.617465
    18  N    2.423691   1.370254   2.430117   3.690688   4.205247
    19  O    2.355593   3.677589   4.781987   4.936526   4.083881
    20  O    2.399360   2.923980   4.324034   5.084165   4.822742
    21  H    3.414652   2.159903   1.084634   2.137956   3.401000
    22  H    3.877215   3.407245   2.132387   1.087375   2.158728
    23  H    3.417386   3.920835   3.408107   2.165878   1.085605
    24  H    2.142574   3.419631   3.863769   3.383114   2.144528
    25  H    4.130748   2.906369   2.716881   3.804949   4.791634
    26  H    7.620007   6.286675   6.297021   7.568820   8.693660
    27  H    6.945824   5.785949   6.200948   7.566710   8.482354
    28  H    4.796734   3.872221   4.649985   5.972782   6.615440
    29  H    2.533505   2.020393   3.307286   4.448358   4.715089
    30  H    3.186212   4.396418   5.602754   5.861253   5.049180
                    6          7          8          9         10
     6  C    0.000000
     7  C    2.480874   0.000000
     8  C    4.938039   4.234469   0.000000
     9  C    5.401637   5.132531   1.398190   0.000000
    10  C    6.781801   6.462196   2.416979   1.393719   0.000000
    11  C    7.639859   7.005733   2.813035   2.427261   1.392078
    12  C    7.316178   6.366885   2.424890   2.784852   2.397248
    13  C    6.061993   5.017283   1.403108   2.411785   2.770788
    14  C    7.546267   7.539435   3.777121   2.483863   1.502328
    15  F    7.472446   7.876257   4.290085   3.006035   2.361534
    16  F    7.407706   7.428480   4.202898   2.859141   2.363578
    17  F    8.860063   8.717166   4.783359   3.635320   2.369500
    18  N    3.698809   2.867141   1.398297   2.456106   3.716142
    19  O    2.702002   1.344751   5.571652   6.411668   7.758112
    20  O    3.630714   1.225995   3.875154   4.942690   6.153969
    21  H    3.863018   4.665946   2.726026   2.575576   3.628542
    22  H    3.381037   5.342317   5.044033   4.847639   5.890786
    23  H    2.148541   4.628845   6.276672   6.404337   7.673525
    24  H    1.084748   2.658964   5.869672   6.393945   7.783794
    25  H    4.908191   5.004673   2.158196   1.085614   2.151674
    26  H    8.698761   8.082782   3.897619   3.408968   2.155080
    27  H    8.195684   7.084568   3.405621   3.871358   3.384804
    28  H    6.101957   4.777656   2.151766   3.393901   3.858042
    29  H    3.929889   2.407507   2.057575   3.244288   4.402745
    30  H    3.666952   1.892760   6.011372   6.942613   8.239778
                   11         12         13         14         15
    11  C    0.000000
    12  C    1.393898   0.000000
    13  C    2.417074   1.388340   0.000000
    14  C    2.516206   3.784957   4.272759   0.000000
    15  F    3.379587   4.555801   4.919209   1.351811   0.000000
    16  F    3.509267   4.651250   4.930888   1.348653   2.160980
    17  F    2.737720   4.128782   4.965558   1.343704   2.165625
    18  N    4.209602   3.682749   2.403441   4.939859   5.318258
    19  O    8.340553   7.703820   6.352383   8.772257   9.071309
    20  O    6.494855   5.710740   4.383831   7.359961   7.871965
    21  H    4.551416   4.640704   3.866778   4.282443   3.937803
    22  H    6.938589   7.082275   6.238541   6.193597   5.541750
    23  H    8.690027   8.597941   7.488431   8.137532   7.720985
    24  H    8.617143   8.231593   6.936436   8.557771   8.521951
    25  H    3.405446   3.869442   3.400119   2.670443   2.955275
    26  H    1.084610   2.160614   3.402781   2.732382   3.591824
    27  H    2.151404   1.086540   2.144082   4.664211   5.439792
    28  H    3.403278   2.153361   1.087297   5.359900   5.972481
    29  H    4.709259   3.971372   2.630057   5.692104   6.207668
    30  H    8.711803   7.978100   6.636987   9.319995   9.721597
                   16         17         18         19         20
    16  F    0.000000
    17  F    2.167035   0.000000
    18  N    5.148933   6.055965   0.000000
    19  O    8.567308   9.973902   4.201385   0.000000
    20  O    7.314858   8.427214   2.667377   2.231019   0.000000
    21  H    4.645200   5.534835   2.674748   5.762906   5.016276
    22  H    6.287196   7.472939   4.559853   5.995839   6.153319
    23  H    7.995861   9.472026   5.290851   4.708367   5.759216
    24  H    8.350595   9.868622   4.562541   2.309095   3.883967
    25  H    2.639699   3.976527   2.712488   6.183467   5.040870
    26  H    3.800889   2.400252   5.294149   9.415973   7.544258
    27  H    5.578610   4.775314   4.546049   8.399979   6.318019
    28  H    5.988868   6.028264   2.606474   6.060024   4.010295
    29  H    5.840749   6.729054   1.018583   3.735450   1.837106
    30  H    9.115235  10.466748   4.687240   0.970634   2.278280
                   21         22         23         24         25
    21  H    0.000000
    22  H    2.442793   0.000000
    23  H    4.295415   2.498046   0.000000
    24  H    4.947482   4.287927   2.480917   0.000000
    25  H    2.294608   4.204892   5.721754   5.899218   0.000000
    26  H    5.479044   7.813358   9.674931   9.685264   4.297956
    27  H    5.617869   8.048001   9.535812   9.075746   4.955813
    28  H    4.447123   6.682387   7.684265   6.879720   4.295696
    29  H    3.671958   5.398827   5.783293   4.612007   3.562183
    30  H    6.533499   6.930118   5.669675   3.242794   6.808655
                   26         27         28         29         30
    26  H    0.000000
    27  H    2.489393   0.000000
    28  H    4.303277   2.474656   0.000000
    29  H    5.774135   4.686788   2.491502   0.000000
    30  H    9.771637   8.588149   6.233957   4.039871   0.000000
 Symmetry turned off by external request.
 Stoichiometry    C14H10F3NO2
 Framework group  C1[X(C14H10F3NO2)]
 Deg. of freedom    84
 Full point group                 C1      NOp   1
 Rotational constants (GHZ):      0.6306251      0.1742819      0.1495711
 Leave Link  202 at Fri Oct 20 13:24:23 2017, MaxMem=   196608000 cpu:         0.0
 (Enter /usr/local/g09_d01/l301.exe)
 Standard basis: 6-31+G(d) (6D, 7F)
 Ernie: Thresh=  0.10000D-02 Tol=  0.10000D-05 Strict=F.
   400 basis functions,   680 primitive gaussians,   400 cartesian basis functions
    72 alpha electrons       72 beta electrons
       nuclear repulsion energy      1499.5451177258 Hartrees.
 IExCor= 1009 DFT=T Ex+Corr=PBE1PBE ExCW=0 ScaHFX=  0.250000
 ScaDFX=  0.750000  0.750000  1.000000  1.000000 ScalE2=  1.000000  1.000000
 IRadAn=      0 IRanWt=     -1 IRanGd=            0 ICorTp=0 IEmpDi=  4
 NAtoms=   30 NActive=   30 NUniq=   30 SFac= 1.00D+00 NAtFMM=   60 NAOKFM=F Big=F
 Integral buffers will be    131072 words long.
 Raffenetti 2 integral format.
 Two-electron integral symmetry is turned off.
 Warning! Using old PCM defaults because it has been requested by the route generator.
 These settings can be overridden by following keywords.
 Using the following non-standard input for PCM:
 EPS=3.0
 --- end of non-standard input.
 ------------------------------------------------------------------------------
 United Atom Topological Model (UA0  parameters set).
  Nord Group  Hybr  Charge Alpha Radius          Bonded to
    1   C     *     0.00   1.00  1.925   C2   [s]  C6   [s]  C7   [s]
    2   C     *     0.00   1.00  1.925   C1   [s]  C3   [s]  N18  [s]
    3   CH    *     0.00   1.00  2.125   C2   [s]  C4   [d]
    4   CH    *     0.00   1.00  2.125   C3   [d]  C5   [s]
    5   CH    *     0.00   1.00  2.125   C4   [s]  C6   [d]
    6   CH    *     0.00   1.00  2.125   C1   [s]  C5   [d]
    7   C     *     0.00   1.00  1.925   C1   [s]  O19  [s]  O20  [d]
    8   C     *     0.00   1.00  1.925   C9   [s]  C13  [s]  N18  [s]
    9   CH    *     0.00   1.00  2.125   C8   [s]  C10  [s]
   10   C     *     0.00   1.00  1.925   C9   [s]  C11  [d]  C14  [s]
   11   CH    *     0.00   1.00  2.125   C10  [d]  C12  [s]
   12   CH    *     0.00   1.00  2.125   C11  [s]  C13  [d]
   13   CH    *     0.00   1.00  2.125   C8   [s]  C12  [d]
   14   C     *     0.00   1.00  1.925   C10  [s]  F15  [s]  F16  [s]  F17  [s]
   15   F     *     0.00   1.00  1.682   C14  [s]
   16   F     *     0.00   1.00  1.682   C14  [s]
   17   F     *     0.00   1.00  1.682   C14  [s]
   18   NH    *     0.00   1.00  1.930   C2   [s]  C8   [s]
   19   OH    *     0.00   1.00  1.850   C7   [s]
   20   O     *     0.00   1.00  1.750   C7   [d]
 ------------------------------------------------------------------------------
 Polarizable Continuum Model (PCM)
 =================================
 Model                : PCM (using non-symmetric T matrix).
 Atomic radii         : UA0 (Simple United Atom Topological Model).
 Polarization charges : Total charges.
 Charge compensation  : None.
 Solution method      : On-the-fly selection.
 Cavity type          : SES (Solvent Excluding Surface) (Alpha=1.000).
 Cavity algorithm     : GePol (RMin=0.200 OFac=0.890).
                        Default sphere list used, NSphG=   20.
                        Tesserae with average area of 0.200 Ang**2.
                        Smoothing algorithm: None.
                        Polarization charges: point-like.
                        Self-potential: constant (ISelfS= 1).
                        Self-field    : global E.n sum rule (ISelfD= 3).
 Solvent              : Water, Eps=   3.000000 Eps(inf)=   1.777849
                        RSolv=   1.385000 Ang.
 ------------------------------------------------------------------------------
 Spheres list:
 ISph  on   Nord     Re0    Alpha      Xe            Ye            Ze
    1   C      1    1.9250  1.000     -1.892400      2.529157     -0.023267
    2   C      2    1.9250  1.000     -1.139647      1.380078     -0.403113
    3   C      3    2.1250  1.000     -0.189793      1.526381     -1.434629
    4   C      4    2.1250  1.000      0.028606      2.754042     -2.034122
    5   C      5    2.1250  1.000     -0.688185      3.889950     -1.642199
    6   C      6    2.1250  1.000     -1.644112      3.761501     -0.651655
    7   C      7    1.9250  1.000     -2.938175      2.437843      1.000031
    8   C      8    1.9250  1.000     -0.629045     -1.005818      0.139887
    9   C      9    2.1250  1.000      0.769145     -1.005818      0.139887
   10   C     10    1.9250  1.000      1.464472     -2.213697      0.139887
   11   C     11    2.1250  1.000      0.792973     -3.432813      0.166828
   12   C     12    2.1250  1.000     -0.600571     -3.429842      0.198092
   13   C     13    2.1250  1.000     -1.306014     -2.234302      0.175263
   14   C     14    1.9250  1.000      2.965603     -2.165091      0.104775
   15   F     15    1.6820  1.000      3.420306     -1.715741     -1.086326
   16   F     16    1.6820  1.000      3.463603     -1.330180      1.039539
   17   F     17    1.6820  1.000      3.526294     -3.369146      0.308289
   18   N     18    1.9300  1.000     -1.387985      0.167720      0.185199
   19   O     19    1.8500  1.000     -3.529669      3.613104      1.277974
   20   O     20    1.7500  1.000     -3.296218      1.413787      1.571152
 ------------------------------------------------------------------------------
 GePol: Number of generator spheres                  =      20
 GePol: Total number of spheres                      =     150
 GePol: Number of exposed spheres                    =     132 ( 88.00%)
 GePol: Number of tesserae                           =    2713
 GePol: Average area of tesserae                     =       0.10 Ang**2
 GePol: Minimum area of tessera                      =   0.11D-02 Ang**2
 GePol: Maximum area of tessera                      =    0.30017 Ang**2
 GePol: Number of small tesserae                     =       0
 GePol: Fraction of small tesserae (<1% of avg)      =       0.00%
 GePol: Total count of vertices                      =   10089
 GePol: Maximum number of vertices in a tessera      =       8
 GePol: Cavity surface area                          =    279.582 Ang**2
 GePol: Cavity volume                                =    301.400 Ang**3
 Leave Link  301 at Fri Oct 20 13:24:23 2017, MaxMem=   196608000 cpu:         0.2
 (Enter /usr/local/g09_d01/l302.exe)
 NPDir=0 NMtPBC=     1 NCelOv=     1 NCel=       1 NClECP=     1 NCelD=      1
         NCelK=      1 NCelE2=     1 NClLst=     1 CellRange=     0.0.
 One-electron integrals computed using PRISM.
 NBasis=   400 RedAO= T EigKep=  1.35D-06  NBF=   400
 NBsUse=   398 1.00D-06 EigRej=  9.23D-07 NBFU=   398
 Precomputing XC quadrature grid using
 IXCGrd= 4 IRadAn=           0 IRanWt=          -1 IRanGd=           0 AccXCQ= 0.00D+00.
 Generated NRdTot=       0 NPtTot=           0 NUsed=           0 NTot=          32
 NSgBfM=   397   397   397   397   397 MxSgAt=    30 MxSgA2=    30.
 Leave Link  302 at Fri Oct 20 13:24:24 2017, MaxMem=   196608000 cpu:         0.9
 (Enter /usr/local/g09_d01/l303.exe)
 DipDrv:  MaxL=1.
 Leave Link  303 at Fri Oct 20 13:24:24 2017, MaxMem=   196608000 cpu:         0.1
 (Enter /usr/local/g09_d01/l401.exe)
 ExpMin= 4.38D-02 ExpMax= 7.00D+03 ExpMxC= 1.05D+03 IAcc=2 IRadAn=         4 AccDes= 0.00D+00
 Harris functional with IExCor= 1009 and IRadAn=       4 diagonalized for initial guess.
 HarFok:  IExCor= 1009 AccDes= 0.00D+00 IRadAn=         4 IDoV= 1 UseB2=F ITyADJ=14
 ICtDFT=  3500011 ScaDFX=  1.000000  1.000000  1.000000  1.000000
 FoFCou: FMM=F IPFlag=           0 FMFlag=      100000 FMFlg1=           0
         NFxFlg=           0 DoJE=T BraDBF=F KetDBF=T FulRan=T
         wScrn=  0.000000 ICntrl=     500 IOpCl=  0 I1Cent=   200000004 NGrid=           0
         NMat0=    1 NMatS0=      1 NMatT0=    0 NMatD0=    1 NMtDS0=    0 NMtDT0=    0
 Symmetry not used in FoFCou.
 Harris En= -1043.34274951359    
 JPrj=0 DoOrth=F DoCkMO=F.
 Leave Link  401 at Fri Oct 20 13:24:33 2017, MaxMem=   196608000 cpu:         8.3
 (Enter /usr/local/g09_d01/l502.exe)
 Closed shell SCF:
 Using DIIS extrapolation, IDIIS=  1040.
 Two-electron integral symmetry not used.
 IVT=      503410 IEndB=      503410 NGot=   196608000 MDV=   196281631
 LenX=   196281631 LenY=   196121190
 Requested convergence on RMS density matrix=1.00D-08 within 128 cycles.
 Requested convergence on MAX density matrix=1.00D-06.
 Requested convergence on             energy=1.00D-06.
 No special actions if energy rises.
 Fock matrices will be formed incrementally for  20 cycles.

 Cycle   1  Pass 1  IDiag  1:
 FoFJK:  IHMeth= 1 ICntrl=       0 DoSepK=F KAlg= 0 I1Cent=   0 FoldK=F
 IRaf= 810000000 NMat=   1 IRICut=       1 DoRegI=T DoRafI=F ISym2E= 0.
 FoFCou: FMM=F IPFlag=           0 FMFlag=      100000 FMFlg1=           0
         NFxFlg=           0 DoJE=F BraDBF=F KetDBF=F FulRan=T
         wScrn=  0.000000 ICntrl=       0 IOpCl=  0 I1Cent=           0 NGrid=           0
         NMat0=    1 NMatS0=      1 NMatT0=    0 NMatD0=    1 NMtDS0=    0 NMtDT0=    0
 Symmetry not used in FoFCou.
 Inv3:  Mode=1 IEnd=    22081107.
 Iteration    1 A*A^-1 deviation from unit magnitude is 7.11D-15 for   2713.
 Iteration    1 A*A^-1 deviation from orthogonality  is 2.66D-15 for   2713   2701.
 Iteration    1 A^-1*A deviation from unit magnitude is 6.44D-15 for   2713.
 Iteration    1 A^-1*A deviation from orthogonality  is 1.56D-15 for   2712   2700.
 E= -1042.86267443371    
 DIIS: error= 1.84D-02 at cycle   1 NSaved=   1.
 NSaved= 1 IEnMin= 1 EnMin= -1042.86267443371     IErMin= 1 ErrMin= 1.84D-02
 ErrMax= 1.84D-02  0.00D+00 EMaxC= 1.00D-01 BMatC= 3.96D-01 BMatP= 3.96D-01
 IDIUse=3 WtCom= 8.16D-01 WtEn= 1.84D-01
 Coeff-Com:  0.100D+01
 Coeff-En:   0.100D+01
 Coeff:      0.100D+01
 Gap=     0.173 Goal=   None    Shift=    0.000
 GapD=    0.173 DampG=1.000 DampE=0.500 DampFc=0.5000 IDamp=-1.
 Damping current iteration by 5.00D-01
 RMSDP=6.69D-02 MaxDP=9.50D+00              OVMax= 2.04D-01

 Cycle   2  Pass 1  IDiag  1:
 RMSU=  3.19D-02    CP:  1.11D+00
 E= -1043.00544557142     Delta-E=       -0.142771137711 Rises=F Damp=T
 DIIS: error= 7.91D-03 at cycle   2 NSaved=   2.
 NSaved= 2 IEnMin= 2 EnMin= -1043.00544557142     IErMin= 2 ErrMin= 7.91D-03
 ErrMax= 7.91D-03  0.00D+00 EMaxC= 1.00D-01 BMatC= 3.54D-02 BMatP= 3.96D-01
 IDIUse=3 WtCom= 9.21D-01 WtEn= 7.91D-02
 Coeff-Com:  0.863D-01 0.914D+00
 Coeff-En:   0.162D+00 0.838D+00
 Coeff:      0.922D-01 0.908D+00
 Gap=     0.168 Goal=   None    Shift=    0.000
 RMSDP=2.83D-02 MaxDP=4.66D+00 DE=-1.43D-01 OVMax= 1.33D-01

 Cycle   3  Pass 1  IDiag  1:
 RMSU=  9.14D-03    CP:  8.56D-01  5.67D-01
 E= -1043.18787731164     Delta-E=       -0.182431740216 Rises=F Damp=F
 DIIS: error= 4.31D-03 at cycle   3 NSaved=   3.
 NSaved= 3 IEnMin= 3 EnMin= -1043.18787731164     IErMin= 3 ErrMin= 4.31D-03
 ErrMax= 4.31D-03  0.00D+00 EMaxC= 1.00D-01 BMatC= 2.40D-02 BMatP= 3.54D-02
 IDIUse=3 WtCom= 9.57D-01 WtEn= 4.31D-02
 Coeff-Com: -0.281D-01 0.445D+00 0.583D+00
 Coeff-En:   0.000D+00 0.000D+00 0.100D+01
 Coeff:     -0.269D-01 0.425D+00 0.601D+00
 Gap=     0.169 Goal=   None    Shift=    0.000
 RMSDP=7.50D-03 MaxDP=8.17D-01 DE=-1.82D-01 OVMax= 5.44D-02

 Cycle   4  Pass 1  IDiag  1:
 RMSU=  5.34D-03    CP:  8.43D-01  4.13D-01  8.32D-01
 E= -1043.20364893195     Delta-E=       -0.015771620309 Rises=F Damp=F
 DIIS: error= 2.43D-03 at cycle   4 NSaved=   4.
 NSaved= 4 IEnMin= 4 EnMin= -1043.20364893195     IErMin= 4 ErrMin= 2.43D-03
 ErrMax= 2.43D-03  0.00D+00 EMaxC= 1.00D-01 BMatC= 6.26D-03 BMatP= 2.40D-02
 IDIUse=3 WtCom= 9.76D-01 WtEn= 2.43D-02
 Coeff-Com: -0.272D-01 0.104D+00 0.367D+00 0.556D+00
 Coeff-En:   0.000D+00 0.000D+00 0.229D+00 0.771D+00
 Coeff:     -0.265D-01 0.102D+00 0.364D+00 0.561D+00
 Gap=     0.163 Goal=   None    Shift=    0.000
 RMSDP=4.18D-03 MaxDP=5.42D-01 DE=-1.58D-02 OVMax= 2.03D-02

 Cycle   5  Pass 1  IDiag  1:
 RMSU=  1.22D-03    CP:  8.51D-01  5.11D-01  8.44D-01  5.53D-01
 E= -1043.20897843036     Delta-E=       -0.005329498414 Rises=F Damp=F
 DIIS: error= 6.22D-04 at cycle   5 NSaved=   5.
 NSaved= 5 IEnMin= 5 EnMin= -1043.20897843036     IErMin= 5 ErrMin= 6.22D-04
 ErrMax= 6.22D-04  0.00D+00 EMaxC= 1.00D-01 BMatC= 3.75D-04 BMatP= 6.26D-03
 IDIUse=3 WtCom= 9.94D-01 WtEn= 6.22D-03
 Coeff-Com: -0.129D-01 0.303D-01 0.162D+00 0.306D+00 0.514D+00
 Coeff-En:   0.000D+00 0.000D+00 0.000D+00 0.000D+00 0.100D+01
 Coeff:     -0.128D-01 0.302D-01 0.161D+00 0.304D+00 0.517D+00
 Gap=     0.163 Goal=   None    Shift=    0.000
 RMSDP=5.32D-04 MaxDP=6.43D-02 DE=-5.33D-03 OVMax= 5.17D-03

 Cycle   6  Pass 1  IDiag  1:
 RMSU=  3.50D-04    CP:  8.48D-01  5.19D-01  8.46D-01  5.52D-01  8.87D-01
 E= -1043.20925939121     Delta-E=       -0.000280960853 Rises=F Damp=F
 DIIS: error= 1.83D-04 at cycle   6 NSaved=   6.
 NSaved= 6 IEnMin= 6 EnMin= -1043.20925939121     IErMin= 6 ErrMin= 1.83D-04
 ErrMax= 1.83D-04  0.00D+00 EMaxC= 1.00D-01 BMatC= 2.69D-05 BMatP= 3.75D-04
 IDIUse=3 WtCom= 9.98D-01 WtEn= 1.83D-03
 Coeff-Com: -0.476D-02 0.839D-02 0.539D-01 0.111D+00 0.272D+00 0.560D+00
 Coeff-En:   0.000D+00 0.000D+00 0.000D+00 0.000D+00 0.000D+00 0.100D+01
 Coeff:     -0.475D-02 0.837D-02 0.538D-01 0.111D+00 0.271D+00 0.560D+00
 Gap=     0.164 Goal=   None    Shift=    0.000
 RMSDP=2.04D-04 MaxDP=1.82D-02 DE=-2.81D-04 OVMax= 1.30D-03

 Cycle   7  Pass 1  IDiag  1:
 RMSU=  6.54D-05    CP:  8.48D-01  5.15D-01  8.49D-01  5.64D-01  8.26D-01
                    CP:  7.42D-01
 E= -1043.20927963017     Delta-E=       -0.000020238953 Rises=F Damp=F
 DIIS: error= 3.78D-05 at cycle   7 NSaved=   7.
 NSaved= 7 IEnMin= 7 EnMin= -1043.20927963017     IErMin= 7 ErrMin= 3.78D-05
 ErrMax= 3.78D-05  0.00D+00 EMaxC= 1.00D-01 BMatC= 2.20D-06 BMatP= 2.69D-05
 IDIUse=1 WtCom= 1.00D+00 WtEn= 0.00D+00
 Coeff-Com: -0.190D-02 0.276D-02 0.196D-01 0.420D-01 0.118D+00 0.309D+00
 Coeff-Com:  0.511D+00
 Coeff:     -0.190D-02 0.276D-02 0.196D-01 0.420D-01 0.118D+00 0.309D+00
 Coeff:      0.511D+00
 Gap=     0.164 Goal=   None    Shift=    0.000
 RMSDP=3.62D-05 MaxDP=4.38D-03 DE=-2.02D-05 OVMax= 5.08D-04

 Cycle   8  Pass 1  IDiag  1:
 RMSU=  2.05D-05    CP:  8.48D-01  5.14D-01  8.50D-01  5.62D-01  8.25D-01
                    CP:  7.30D-01  8.38D-01
 E= -1043.20928157927     Delta-E=       -0.000001949107 Rises=F Damp=F
 DIIS: error= 1.26D-05 at cycle   8 NSaved=   8.
 NSaved= 8 IEnMin= 8 EnMin= -1043.20928157927     IErMin= 8 ErrMin= 1.26D-05
 ErrMax= 1.26D-05  0.00D+00 EMaxC= 1.00D-01 BMatC= 1.70D-07 BMatP= 2.20D-06
 IDIUse=1 WtCom= 1.00D+00 WtEn= 0.00D+00
 Coeff-Com: -0.321D-03 0.261D-03 0.237D-02 0.549D-02 0.228D-01 0.807D-01
 Coeff-Com:  0.247D+00 0.642D+00
 Coeff:     -0.321D-03 0.261D-03 0.237D-02 0.549D-02 0.228D-01 0.807D-01
 Coeff:      0.247D+00 0.642D+00
 Gap=     0.164 Goal=   None    Shift=    0.000
 RMSDP=1.21D-05 MaxDP=7.90D-04 DE=-1.95D-06 OVMax= 1.87D-04

 Cycle   9  Pass 1  IDiag  1:
 RMSU=  9.11D-06    CP:  8.48D-01  5.14D-01  8.50D-01  5.63D-01  8.26D-01
                    CP:  7.32D-01  8.81D-01  7.89D-01
 E= -1043.20928171922     Delta-E=       -0.000000139944 Rises=F Damp=F
 DIIS: error= 4.69D-06 at cycle   9 NSaved=   9.
 NSaved= 9 IEnMin= 9 EnMin= -1043.20928171922     IErMin= 9 ErrMin= 4.69D-06
 ErrMax= 4.69D-06  0.00D+00 EMaxC= 1.00D-01 BMatC= 3.03D-08 BMatP= 1.70D-07
 IDIUse=1 WtCom= 1.00D+00 WtEn= 0.00D+00
 Coeff-Com:  0.620D-04-0.189D-03-0.116D-02-0.246D-02-0.287D-02 0.406D-02
 Coeff-Com:  0.628D-01 0.350D+00 0.590D+00
 Coeff:      0.620D-04-0.189D-03-0.116D-02-0.246D-02-0.287D-02 0.406D-02
 Coeff:      0.628D-01 0.350D+00 0.590D+00
 Gap=     0.164 Goal=   None    Shift=    0.000
 RMSDP=8.75D-06 MaxDP=7.73D-04 DE=-1.40D-07 OVMax= 6.66D-05

 Cycle  10  Pass 1  IDiag  1:
 RMSU=  2.99D-06    CP:  8.48D-01  5.14D-01  8.50D-01  5.63D-01  8.27D-01
                    CP:  7.34D-01  8.86D-01  8.93D-01  8.32D-01
 E= -1043.20928174860     Delta-E=       -0.000000029383 Rises=F Damp=F
 DIIS: error= 2.05D-06 at cycle  10 NSaved=  10.
 NSaved=10 IEnMin=10 EnMin= -1043.20928174860     IErMin=10 ErrMin= 2.05D-06
 ErrMax= 2.05D-06  0.00D+00 EMaxC= 1.00D-01 BMatC= 2.87D-09 BMatP= 3.03D-08
 IDIUse=1 WtCom= 1.00D+00 WtEn= 0.00D+00
 Coeff-Com:  0.542D-04-0.115D-03-0.745D-03-0.169D-02-0.303D-02-0.291D-02
 Coeff-Com:  0.165D-01 0.142D+00 0.320D+00 0.530D+00
 Coeff:      0.542D-04-0.115D-03-0.745D-03-0.169D-02-0.303D-02-0.291D-02
 Coeff:      0.165D-01 0.142D+00 0.320D+00 0.530D+00
 Gap=     0.164 Goal=   None    Shift=    0.000
 RMSDP=2.68D-06 MaxDP=3.49D-04 DE=-2.94D-08 OVMax= 2.12D-05

 Cycle  11  Pass 1  IDiag  1:
 RMSU=  1.34D-06    CP:  8.48D-01  5.14D-01  8.50D-01  5.63D-01  8.27D-01
                    CP:  7.35D-01  8.90D-01  8.85D-01  8.41D-01  6.33D-01
 E= -1043.20928175157     Delta-E=       -0.000000002973 Rises=F Damp=F
 DIIS: error= 4.25D-07 at cycle  11 NSaved=  11.
 NSaved=11 IEnMin=11 EnMin= -1043.20928175157     IErMin=11 ErrMin= 4.25D-07
 ErrMax= 4.25D-07  0.00D+00 EMaxC= 1.00D-01 BMatC= 2.65D-10 BMatP= 2.87D-09
 IDIUse=1 WtCom= 1.00D+00 WtEn= 0.00D+00
 Coeff-Com:  0.176D-04-0.282D-04-0.175D-03-0.442D-03-0.105D-02-0.210D-02
 Coeff-Com: -0.269D-02 0.977D-02 0.571D-01 0.259D+00 0.680D+00
 Coeff:      0.176D-04-0.282D-04-0.175D-03-0.442D-03-0.105D-02-0.210D-02
 Coeff:     -0.269D-02 0.977D-02 0.571D-01 0.259D+00 0.680D+00
 Gap=     0.164 Goal=   None    Shift=    0.000
 RMSDP=6.42D-07 MaxDP=4.65D-05 DE=-2.97D-09 OVMax= 9.40D-06

 Cycle  12  Pass 1  IDiag  1:
 RMSU=  2.64D-07    CP:  8.48D-01  5.14D-01  8.50D-01  5.63D-01  8.27D-01
                    CP:  7.34D-01  8.91D-01  8.92D-01  8.61D-01  7.25D-01
                    CP:  8.31D-01
 E= -1043.20928175189     Delta-E=       -0.000000000312 Rises=F Damp=F
 DIIS: error= 1.98D-07 at cycle  12 NSaved=  12.
 NSaved=12 IEnMin=12 EnMin= -1043.20928175189     IErMin=12 ErrMin= 1.98D-07
 ErrMax= 1.98D-07  0.00D+00 EMaxC= 1.00D-01 BMatC= 1.74D-11 BMatP= 2.65D-10
 IDIUse=1 WtCom= 1.00D+00 WtEn= 0.00D+00
 Coeff-Com:  0.367D-05-0.394D-05-0.167D-04-0.590D-04-0.224D-03-0.643D-03
 Coeff-Com: -0.222D-02-0.661D-02-0.108D-03 0.658D-01 0.280D+00 0.664D+00
 Coeff:      0.367D-05-0.394D-05-0.167D-04-0.590D-04-0.224D-03-0.643D-03
 Coeff:     -0.222D-02-0.661D-02-0.108D-03 0.658D-01 0.280D+00 0.664D+00
 Gap=     0.164 Goal=   None    Shift=    0.000
 RMSDP=2.10D-07 MaxDP=2.07D-05 DE=-3.12D-10 OVMax= 1.93D-06

 Cycle  13  Pass 1  IDiag  1:
 RMSU=  8.15D-08    CP:  8.48D-01  5.14D-01  8.50D-01  5.63D-01  8.27D-01
                    CP:  7.34D-01  8.91D-01  8.91D-01  8.63D-01  7.33D-01
                    CP:  9.15D-01  1.04D+00
 E= -1043.20928175186     Delta-E=        0.000000000030 Rises=F Damp=F
 DIIS: error= 6.73D-08 at cycle  13 NSaved=  13.
 NSaved=13 IEnMin=12 EnMin= -1043.20928175189     IErMin=13 ErrMin= 6.73D-08
 ErrMax= 6.73D-08  0.00D+00 EMaxC= 1.00D-01 BMatC= 2.50D-12 BMatP= 1.74D-11
 IDIUse=1 WtCom= 1.00D+00 WtEn= 0.00D+00
 Coeff-Com: -0.670D-06 0.185D-05 0.168D-04 0.362D-04 0.389D-04 0.280D-05
 Coeff-Com: -0.552D-03-0.447D-02-0.810D-02-0.929D-02 0.291D-01 0.290D+00
 Coeff-Com:  0.703D+00
 Coeff:     -0.670D-06 0.185D-05 0.168D-04 0.362D-04 0.389D-04 0.280D-05
 Coeff:     -0.552D-03-0.447D-02-0.810D-02-0.929D-02 0.291D-01 0.290D+00
 Coeff:      0.703D+00
 Gap=     0.164 Goal=   None    Shift=    0.000
 RMSDP=7.78D-08 MaxDP=7.94D-06 DE= 3.00D-11 OVMax= 9.55D-07

 Cycle  14  Pass 1  IDiag  1:
 RMSU=  3.88D-08    CP:  8.48D-01  5.14D-01  8.50D-01  5.63D-01  8.27D-01
                    CP:  7.34D-01  8.91D-01  8.91D-01  8.64D-01  7.32D-01
                    CP:  9.39D-01  1.09D+00  1.03D+00
 E= -1043.20928175196     Delta-E=       -0.000000000100 Rises=F Damp=F
 DIIS: error= 1.62D-08 at cycle  14 NSaved=  14.
 NSaved=14 IEnMin=14 EnMin= -1043.20928175196     IErMin=14 ErrMin= 1.62D-08
 ErrMax= 1.62D-08  0.00D+00 EMaxC= 1.00D-01 BMatC= 3.47D-13 BMatP= 2.50D-12
 IDIUse=1 WtCom= 1.00D+00 WtEn= 0.00D+00
 Coeff-Com: -0.618D-06 0.126D-05 0.965D-05 0.229D-04 0.363D-04 0.543D-04
 Coeff-Com: -0.635D-04-0.162D-02-0.378D-02-0.100D-01-0.832D-02 0.765D-01
 Coeff-Com:  0.349D+00 0.599D+00
 Coeff:     -0.618D-06 0.126D-05 0.965D-05 0.229D-04 0.363D-04 0.543D-04
 Coeff:     -0.635D-04-0.162D-02-0.378D-02-0.100D-01-0.832D-02 0.765D-01
 Coeff:      0.349D+00 0.599D+00
 Gap=     0.164 Goal=   None    Shift=    0.000
 RMSDP=1.87D-08 MaxDP=1.96D-06 DE=-9.96D-11 OVMax= 3.28D-07

 Cycle  15  Pass 1  IDiag  1:
 RMSU=  1.02D-08    CP:  8.48D-01  5.14D-01  8.50D-01  5.63D-01  8.27D-01
                    CP:  7.34D-01  8.91D-01  8.91D-01  8.64D-01  7.31D-01
                    CP:  9.43D-01  1.11D+00  1.07D+00  8.69D-01
 E= -1043.20928175187     Delta-E=        0.000000000090 Rises=F Damp=F
 DIIS: error= 4.47D-09 at cycle  15 NSaved=  15.
 NSaved=15 IEnMin=14 EnMin= -1043.20928175196     IErMin=15 ErrMin= 4.47D-09
 ErrMax= 4.47D-09  0.00D+00 EMaxC= 1.00D-01 BMatC= 2.19D-14 BMatP= 3.47D-13
 IDIUse=1 WtCom= 1.00D+00 WtEn= 0.00D+00
 Coeff-Com: -0.148D-06 0.229D-06 0.150D-05 0.436D-05 0.836D-05 0.168D-04
 Coeff-Com:  0.461D-04-0.103D-03-0.461D-03-0.304D-02-0.665D-02-0.924D-02
 Coeff-Com:  0.472D-01 0.224D+00 0.748D+00
 Coeff:     -0.148D-06 0.229D-06 0.150D-05 0.436D-05 0.836D-05 0.168D-04
 Coeff:      0.461D-04-0.103D-03-0.461D-03-0.304D-02-0.665D-02-0.924D-02
 Coeff:      0.472D-01 0.224D+00 0.748D+00
 Gap=     0.164 Goal=   None    Shift=    0.000
 RMSDP=1.64D-08 MaxDP=2.20D-06 DE= 9.05D-11 OVMax= 1.07D-07

 Cycle  16  Pass 1  IDiag  1:
 RMSU=  3.81D-09    CP:  8.48D-01  5.14D-01  8.50D-01  5.63D-01  8.27D-01
                    CP:  7.34D-01  8.91D-01  8.91D-01  8.64D-01  7.32D-01
                    CP:  9.47D-01  1.12D+00  1.13D+00  9.39D-01  1.00D+00
 E= -1043.20928175191     Delta-E=       -0.000000000045 Rises=F Damp=F
 DIIS: error= 1.89D-09 at cycle  16 NSaved=  16.
 NSaved=16 IEnMin=14 EnMin= -1043.20928175196     IErMin=16 ErrMin= 1.89D-09
 ErrMax= 1.89D-09  0.00D+00 EMaxC= 1.00D-01 BMatC= 5.11D-15 BMatP= 2.19D-14
 IDIUse=1 WtCom= 1.00D+00 WtEn= 0.00D+00
 Coeff-Com: -0.151D-07-0.948D-08-0.200D-06-0.254D-07 0.744D-06 0.380D-05
 Coeff-Com:  0.371D-04 0.125D-03 0.197D-03-0.534D-03-0.221D-02-0.121D-01
 Coeff-Com: -0.710D-02 0.664D-01 0.412D+00 0.544D+00
 Coeff:     -0.151D-07-0.948D-08-0.200D-06-0.254D-07 0.744D-06 0.380D-05
 Coeff:      0.371D-04 0.125D-03 0.197D-03-0.534D-03-0.221D-02-0.121D-01
 Coeff:     -0.710D-02 0.664D-01 0.412D+00 0.544D+00
 Gap=     0.164 Goal=   None    Shift=    0.000
 RMSDP=3.50D-09 MaxDP=2.24D-07 DE=-4.55D-11 OVMax= 3.79D-08

 Error on total polarization charges =  0.01980
 SCF Done:  E(RPBE1PBE) =  -1043.20928175     A.U. after   16 cycles
            NFock= 16  Conv=0.35D-08     -V/T= 2.0081
 KE= 1.034795793930D+03 PE=-5.442299624764D+03 EE= 1.864749431356D+03
 --------------------------------------------------------------------
 Variational PCM results
 =======================
 <psi(f)|   H    |psi(f)>                     (a.u.) =   -1043.196316
 <psi(f)|H+V(f)/2|psi(f)>                     (a.u.) =   -1043.209282
 Total free energy in solution:
 - with all non electrostatic terms           (a.u.) =   -1043.191689
 --------------------------------------------------------------------
 (Polarized solute)-Solvent               (kcal/mol) =      -8.14
 --------------------------------------------------------------------
 Cavitation energy                        (kcal/mol) =      34.19
 Dispersion energy                        (kcal/mol) =     -25.16
 Repulsion energy                         (kcal/mol) =       2.02
 Total non electrostatic                  (kcal/mol) =      11.04
 --------------------------------------------------------------------
 Partition over spheres:
 Sphere  on Atom  Surface  Charge   GEl     GCav    GDR
    1      C1       2.25   0.003   -0.01    0.51   -0.25
    2      C2       1.96   0.000    0.00    0.47   -0.21
    3      C3      10.83   0.000   -0.15    1.98   -1.13
    4      C4      17.82  -0.021   -0.43    2.34   -1.85
    5      C5      18.16  -0.010   -0.39    2.38   -1.83
    6      C6      14.26  -0.007   -0.24    2.19   -1.53
    7      C7       4.59  -0.013   -0.03    0.86   -0.53
    8      C8       0.58   0.000    0.00    0.29   -0.04
    9      C9       7.42  -0.010   -0.18    1.93   -0.85
   10      C10      0.75   0.000    0.00    0.30   -0.03
   11      C11     15.09  -0.016   -0.33    2.32   -1.67
   12      C12     17.89  -0.023   -0.48    2.35   -1.85
   13      C13     17.26  -0.024   -0.48    2.44   -1.86
   14      C14      0.18  -0.001    0.00    0.21    0.00
   15      F15     15.13   0.036   -0.22    2.46   -1.66
   16      F16     15.33   0.034   -0.22    2.38   -1.72
   17      F17     13.99   0.029   -0.16    2.29   -1.62
   18      N18      4.42   0.005   -0.03    1.23   -0.46
   19      O19     20.53  -0.067   -3.41    2.91   -2.31
   20      O20     15.12   0.099   -0.83    2.36   -1.75
 Added spheres:    66.02  -0.032   -0.53    0.00    0.00
 --------------------------------------------------------------------
 - cavitation energy not included in the total energy.
 - dispersion energy not included in the total energy.
 - repulsion  energy not included in the total energy.
 After PCM corrections, the energy is  -1043.20928175     a.u.
 --------------------------------------------------------------------
 Leave Link  502 at Fri Oct 20 13:36:48 2017, MaxMem=   196608000 cpu:       735.1
 (Enter /usr/local/g09_d01/l601.exe)
 Copying SCF densities to generalized density rwf, IOpCl= 0 IROHF=0.

 **********************************************************************

            Population analysis using the SCF density.

 **********************************************************************

 Alpha  occ. eigenvalues --  -24.83944 -24.83596 -24.83464 -19.28519 -19.23683
 Alpha  occ. eigenvalues --  -14.43879 -10.49748 -10.38660 -10.31077 -10.30343
 Alpha  occ. eigenvalues --  -10.27811 -10.26474 -10.26370 -10.26044 -10.25980
 Alpha  occ. eigenvalues --  -10.25845 -10.25830 -10.25787 -10.24934 -10.24370
 Alpha  occ. eigenvalues --   -1.36004  -1.27178  -1.26684  -1.15311  -1.05974
 Alpha  occ. eigenvalues --   -0.99978  -0.91087  -0.88763  -0.82280  -0.80795
 Alpha  occ. eigenvalues --   -0.79467  -0.76479  -0.73532  -0.69599  -0.66801
 Alpha  occ. eigenvalues --   -0.66321  -0.64001  -0.62595  -0.62035  -0.61010
 Alpha  occ. eigenvalues --   -0.59562  -0.56179  -0.54133  -0.53128  -0.52633
 Alpha  occ. eigenvalues --   -0.51629  -0.49990  -0.49668  -0.49028  -0.48298
 Alpha  occ. eigenvalues --   -0.47754  -0.47101  -0.46152  -0.45836  -0.45508
 Alpha  occ. eigenvalues --   -0.44585  -0.43592  -0.42832  -0.42551  -0.41941
 Alpha  occ. eigenvalues --   -0.39955  -0.39778  -0.39071  -0.37880  -0.37099
 Alpha  occ. eigenvalues --   -0.35244  -0.34545  -0.31082  -0.28805  -0.28422
 Alpha  occ. eigenvalues --   -0.28252  -0.22121
 Alpha virt. eigenvalues --   -0.05749  -0.03534  -0.02817   0.00914   0.00955
 Alpha virt. eigenvalues --    0.01978   0.02469   0.03599   0.03714   0.04279
 Alpha virt. eigenvalues --    0.04466   0.05046   0.05464   0.05588   0.05861
 Alpha virt. eigenvalues --    0.06535   0.07305   0.07833   0.08118   0.08974
 Alpha virt. eigenvalues --    0.09419   0.09528   0.10304   0.10767   0.11401
 Alpha virt. eigenvalues --    0.11659   0.12187   0.12773   0.13170   0.13323
 Alpha virt. eigenvalues --    0.13941   0.14344   0.14842   0.15025   0.15208
 Alpha virt. eigenvalues --    0.15682   0.16262   0.16866   0.17073   0.17596
 Alpha virt. eigenvalues --    0.18072   0.18374   0.18740   0.18948   0.19688
 Alpha virt. eigenvalues --    0.20025   0.20264   0.20740   0.20977   0.21276
 Alpha virt. eigenvalues --    0.21548   0.21972   0.22518   0.22647   0.22737
 Alpha virt. eigenvalues --    0.23295   0.23645   0.23977   0.24314   0.24817
 Alpha virt. eigenvalues --    0.24930   0.25316   0.25891   0.26138   0.26332
 Alpha virt. eigenvalues --    0.26526   0.26734   0.27152   0.27791   0.28085
 Alpha virt. eigenvalues --    0.28274   0.28915   0.29330   0.29545   0.30430
 Alpha virt. eigenvalues --    0.30528   0.30743   0.31392   0.31509   0.31866
 Alpha virt. eigenvalues --    0.31976   0.32177   0.33245   0.33672   0.34600
 Alpha virt. eigenvalues --    0.35165   0.35480   0.35997   0.36527   0.37057
 Alpha virt. eigenvalues --    0.37618   0.37726   0.38340   0.38825   0.39417
 Alpha virt. eigenvalues --    0.39849   0.40157   0.40773   0.41496   0.42544
 Alpha virt. eigenvalues --    0.44045   0.44486   0.45411   0.45859   0.46532
 Alpha virt. eigenvalues --    0.47118   0.48936   0.49120   0.49599   0.52081
 Alpha virt. eigenvalues --    0.52537   0.53973   0.59508   0.61958   0.63057
 Alpha virt. eigenvalues --    0.63965   0.67121   0.69861   0.70438   0.70669
 Alpha virt. eigenvalues --    0.71795   0.72226   0.73202   0.73315   0.74477
 Alpha virt. eigenvalues --    0.75659   0.76057   0.76970   0.77800   0.78086
 Alpha virt. eigenvalues --    0.79161   0.79412   0.80306   0.81004   0.81986
 Alpha virt. eigenvalues --    0.82596   0.83068   0.83758   0.85248   0.85878
 Alpha virt. eigenvalues --    0.87242   0.88167   0.89541   0.91392   0.92656
 Alpha virt. eigenvalues --    0.93748   0.94605   0.95638   0.96442   0.97922
 Alpha virt. eigenvalues --    0.99858   1.00725   1.01174   1.03561   1.04233
 Alpha virt. eigenvalues --    1.05042   1.07286   1.07835   1.10907   1.12383
 Alpha virt. eigenvalues --    1.12820   1.13502   1.14869   1.15635   1.17694
 Alpha virt. eigenvalues --    1.18265   1.18850   1.19769   1.20127   1.21586
 Alpha virt. eigenvalues --    1.22212   1.23365   1.24165   1.25064   1.25548
 Alpha virt. eigenvalues --    1.26530   1.27529   1.27988   1.29970   1.30135
 Alpha virt. eigenvalues --    1.31298   1.32971   1.33471   1.35820   1.38530
 Alpha virt. eigenvalues --    1.39161   1.40731   1.41309   1.42637   1.43206
 Alpha virt. eigenvalues --    1.45079   1.45429   1.46153   1.46402   1.48279
 Alpha virt. eigenvalues --    1.48557   1.49382   1.49983   1.51489   1.53557
 Alpha virt. eigenvalues --    1.55671   1.60266   1.62777   1.63382   1.63973
 Alpha virt. eigenvalues --    1.65333   1.67140   1.68722   1.68863   1.69639
 Alpha virt. eigenvalues --    1.70234   1.70868   1.71756   1.72539   1.74549
 Alpha virt. eigenvalues --    1.76936   1.77737   1.78081   1.80008   1.81408
 Alpha virt. eigenvalues --    1.82264   1.83639   1.84148   1.84503   1.84948
 Alpha virt. eigenvalues --    1.85790   1.86774   1.87923   1.88527   1.89587
 Alpha virt. eigenvalues --    1.92830   1.93508   1.94792   1.95783   1.96634
 Alpha virt. eigenvalues --    1.98154   1.99395   2.00368   2.01330   2.02133
 Alpha virt. eigenvalues --    2.03195   2.05441   2.06779   2.06975   2.08274
 Alpha virt. eigenvalues --    2.09249   2.09669   2.10007   2.11626   2.12139
 Alpha virt. eigenvalues --    2.14458   2.15610   2.16753   2.17908   2.20461
 Alpha virt. eigenvalues --    2.22119   2.23681   2.24683   2.25718   2.26612
 Alpha virt. eigenvalues --    2.27202   2.29417   2.30837   2.31563   2.33974
 Alpha virt. eigenvalues --    2.36439   2.40058   2.42333   2.45341   2.47576
 Alpha virt. eigenvalues --    2.48310   2.49078   2.53126   2.55211   2.60547
 Alpha virt. eigenvalues --    2.62165   2.64010   2.64537   2.66086   2.66775
 Alpha virt. eigenvalues --    2.68579   2.69690   2.71194   2.74480   2.75115
 Alpha virt. eigenvalues --    2.76950   2.77303   2.78899   2.82518   2.83517
 Alpha virt. eigenvalues --    2.86973   2.90231   2.93777   2.95607   2.98123
 Alpha virt. eigenvalues --    3.00378   3.07390   3.11342   3.16186   3.17861
 Alpha virt. eigenvalues --    3.20981   3.25412   3.29193   3.34010   3.44500
 Alpha virt. eigenvalues --    3.46693   4.18652   4.28192   4.29053   4.31999
 Alpha virt. eigenvalues --    4.33440   4.36186   4.36875   4.42176   4.43523
 Alpha virt. eigenvalues --    4.44337   4.49909   4.50917   4.54164   4.63226
 Alpha virt. eigenvalues --    4.76282   4.78371   4.83575   5.61508   6.09852
 Alpha virt. eigenvalues --    6.85448
          Condensed to atoms (all electrons):
               1          2          3          4          5          6
     1  C   15.395654  -4.483702  -2.060340  -0.002931  -0.657365  -1.554255
     2  C   -4.483702  19.685383  -1.903754  -1.810412   1.009254  -3.427485
     3  C   -2.060340  -1.903754   9.988520  -1.179608  -0.440290   1.007046
     4  C   -0.002931  -1.810412  -1.179608   9.340827  -0.083460   0.160452
     5  C   -0.657365   1.009254  -0.440290  -0.083460   8.413562  -1.590125
     6  C   -1.554255  -3.427485   1.007046   0.160452  -1.590125  10.967644
     7  C    0.506599  -0.997043  -0.515158   0.245699  -0.816905  -0.478974
     8  C   -1.744418   1.560126   0.431298  -0.608753   0.254258  -0.408656
     9  C    3.331433  -2.801414  -0.626603  -0.535789  -0.125254   0.916739
    10  C   -1.472341  -2.036431   1.025017   0.372347  -0.050409   0.252886
    11  C   -0.323361   0.153094   0.095943   0.151820  -0.009623   0.007397
    12  C   -0.000896  -0.046367   0.031148  -0.021594   0.004248  -0.024562
    13  C   -0.826031   2.281531  -0.348403   0.211715   0.053743  -0.558397
    14  C    0.047743  -0.359870   0.042867  -0.021158   0.002145   0.019979
    15  F   -0.001204  -0.004546   0.001805   0.006016  -0.000286   0.000104
    16  F   -0.001753   0.008112  -0.000584  -0.000945  -0.000028  -0.000526
    17  F   -0.000633  -0.000843   0.000812   0.000231   0.000002   0.000003
    18  N   -0.247055   0.040306  -0.033313   0.073768  -0.049585   0.172506
    19  O    0.081041  -0.067125  -0.003503  -0.002351   0.132789   0.054216
    20  O    0.010189  -0.247650  -0.023923  -0.009721   0.048170   0.094794
    21  H    0.050760  -0.050709   0.320545  -0.001645   0.002429  -0.013238
    22  H   -0.009497  -0.006076  -0.005298   0.292695   0.019014   0.014801
    23  H    0.023889  -0.001440   0.010354   0.005268   0.262191   0.006718
    24  H   -0.043824   0.036719  -0.003449  -0.001496   0.030284   0.304008
    25  H   -0.053223  -0.072002   0.081740   0.013290  -0.002570   0.004818
    26  H    0.000027   0.001482  -0.000401  -0.000014   0.000001  -0.000003
    27  H   -0.000198   0.001211  -0.000774  -0.000127  -0.000001   0.000005
    28  H    0.022395  -0.023732  -0.008208  -0.000565   0.000100   0.000480
    29  H    0.014370  -0.116584   0.052534   0.003375   0.000381   0.016580
    30  H    0.027021   0.000715   0.005043   0.000694  -0.011518   0.004550
               7          8          9         10         11         12
     1  C    0.506599  -1.744418   3.331433  -1.472341  -0.323361  -0.000896
     2  C   -0.997043   1.560126  -2.801414  -2.036431   0.153094  -0.046367
     3  C   -0.515158   0.431298  -0.626603   1.025017   0.095943   0.031148
     4  C    0.245699  -0.608753  -0.535789   0.372347   0.151820  -0.021594
     5  C   -0.816905   0.254258  -0.125254  -0.050409  -0.009623   0.004248
     6  C   -0.478974  -0.408656   0.916739   0.252886   0.007397  -0.024562
     7  C    7.846592  -0.464571   0.082147  -0.206811  -0.003515   0.024350
     8  C   -0.464571  18.203414  -6.946097  -0.843909  -0.449447   0.703442
     9  C    0.082147  -6.946097  32.396285  -6.664712  -6.701515  -0.710327
    10  C   -0.206811  -0.843909  -6.664712  19.187955  -1.199857   0.536357
    11  C   -0.003515  -0.449447  -6.701515  -1.199857  13.888999  -0.735052
    12  C    0.024350   0.703442  -0.710327   0.536357  -0.735052   7.489277
    13  C    0.081552  -1.460197  -5.645015  -2.214852   1.098651  -1.101748
    14  C   -0.017552  -2.169934  -0.628814  -0.103361   0.277953  -0.174778
    15  F    0.000020   0.009806  -0.177079   0.154608  -0.017926   0.014530
    16  F    0.000195   0.110959  -0.100487  -0.001691  -0.026076   0.018808
    17  F   -0.000014   0.050069   0.050338  -0.037111  -0.091740   0.068580
    18  N   -0.093877  -0.587607  -0.292272   0.188818   0.102197   0.008258
    19  O   -0.142011   0.013742   0.009338   0.000135  -0.000181  -0.000152
    20  O    0.275994   0.137022   0.044532   0.012304  -0.003046   0.004106
    21  H    0.007619   0.023587   0.038008  -0.025619  -0.005560   0.003516
    22  H    0.000295   0.005544  -0.002537  -0.001599  -0.000307   0.000067
    23  H    0.002750   0.000336  -0.000288   0.000078   0.000009  -0.000002
    24  H   -0.027966   0.002757  -0.001486  -0.000112  -0.000007   0.000024
    25  H   -0.002659  -0.026655  -0.021817   0.196768   0.061323  -0.022171
    26  H    0.000009   0.016768   0.032738   0.002809   0.270206   0.012399
    27  H   -0.000029  -0.006399  -0.017121   0.005296   0.040769   0.256643
    28  H    0.001456  -0.008464   0.123863   0.016641  -0.027597  -0.022145
    29  H   -0.025283  -0.014431   0.022580   0.017567  -0.006195   0.014977
    30  H   -0.003040  -0.000518  -0.000244  -0.000040   0.000004  -0.000009
              13         14         15         16         17         18
     1  C   -0.826031   0.047743  -0.001204  -0.001753  -0.000633  -0.247055
     2  C    2.281531  -0.359870  -0.004546   0.008112  -0.000843   0.040306
     3  C   -0.348403   0.042867   0.001805  -0.000584   0.000812  -0.033313
     4  C    0.211715  -0.021158   0.006016  -0.000945   0.000231   0.073768
     5  C    0.053743   0.002145  -0.000286  -0.000028   0.000002  -0.049585
     6  C   -0.558397   0.019979   0.000104  -0.000526   0.000003   0.172506
     7  C    0.081552  -0.017552   0.000020   0.000195  -0.000014  -0.093877
     8  C   -1.460197  -2.169934   0.009806   0.110959   0.050069  -0.587607
     9  C   -5.645015  -0.628814  -0.177079  -0.100487   0.050338  -0.292272
    10  C   -2.214852  -0.103361   0.154608  -0.001691  -0.037111   0.188818
    11  C    1.098651   0.277953  -0.017926  -0.026076  -0.091740   0.102197
    12  C   -1.101748  -0.174778   0.014530   0.018808   0.068580   0.008258
    13  C   14.139639   0.311504  -0.010334  -0.006926   0.000230   0.382885
    14  C    0.311504   7.036458   0.147321   0.123045   0.055472   0.003816
    15  F   -0.010334   0.147321   9.234497  -0.054066  -0.036408   0.001308
    16  F   -0.006926   0.123045  -0.054066   9.243009  -0.032976  -0.001520
    17  F    0.000230   0.055472  -0.036408  -0.032976   9.298478   0.000246
    18  N    0.382885   0.003816   0.001308  -0.001520   0.000246   7.628952
    19  O   -0.009852   0.000038   0.000000   0.000000   0.000000  -0.005573
    20  O   -0.099626   0.000164   0.000000  -0.000001   0.000000   0.001390
    21  H   -0.038171  -0.009845  -0.000129  -0.000030   0.000001  -0.006406
    22  H    0.000760   0.000190   0.000001   0.000000   0.000000  -0.001004
    23  H    0.000101  -0.000005   0.000000   0.000000   0.000000   0.000218
    24  H    0.000289  -0.000001   0.000000   0.000000   0.000000  -0.001144
    25  H    0.066375   0.051939   0.000342   0.004260   0.000471   0.008860
    26  H   -0.014778  -0.025521   0.000040   0.000085   0.005638   0.000070
    27  H    0.028363   0.001487   0.000010   0.000009   0.000066  -0.000296
    28  H    0.231800   0.006538   0.000001   0.000002  -0.000002  -0.015007
    29  H   -0.013652   0.001861   0.000001   0.000000   0.000000   0.208437
    30  H    0.000196  -0.000001   0.000000   0.000000   0.000000  -0.000503
              19         20         21         22         23         24
     1  C    0.081041   0.010189   0.050760  -0.009497   0.023889  -0.043824
     2  C   -0.067125  -0.247650  -0.050709  -0.006076  -0.001440   0.036719
     3  C   -0.003503  -0.023923   0.320545  -0.005298   0.010354  -0.003449
     4  C   -0.002351  -0.009721  -0.001645   0.292695   0.005268  -0.001496
     5  C    0.132789   0.048170   0.002429   0.019014   0.262191   0.030284
     6  C    0.054216   0.094794  -0.013238   0.014801   0.006718   0.304008
     7  C   -0.142011   0.275994   0.007619   0.000295   0.002750  -0.027966
     8  C    0.013742   0.137022   0.023587   0.005544   0.000336   0.002757
     9  C    0.009338   0.044532   0.038008  -0.002537  -0.000288  -0.001486
    10  C    0.000135   0.012304  -0.025619  -0.001599   0.000078  -0.000112
    11  C   -0.000181  -0.003046  -0.005560  -0.000307   0.000009  -0.000007
    12  C   -0.000152   0.004106   0.003516   0.000067  -0.000002   0.000024
    13  C   -0.009852  -0.099626  -0.038171   0.000760   0.000101   0.000289
    14  C    0.000038   0.000164  -0.009845   0.000190  -0.000005  -0.000001
    15  F    0.000000   0.000000  -0.000129   0.000001   0.000000   0.000000
    16  F    0.000000  -0.000001  -0.000030   0.000000   0.000000   0.000000
    17  F    0.000000   0.000000   0.000001   0.000000   0.000000   0.000000
    18  N   -0.005573   0.001390  -0.006406  -0.001004   0.000218  -0.001144
    19  O    8.617387  -0.152628   0.000040   0.000006   0.000001   0.005197
    20  O   -0.152628   8.415207   0.000003  -0.000002   0.000029  -0.000277
    21  H    0.000040   0.000003   0.461139  -0.003436  -0.000134   0.000012
    22  H    0.000006  -0.000002  -0.003436   0.456541  -0.002921  -0.000140
    23  H    0.000001   0.000029  -0.000134  -0.002921   0.456577  -0.003082
    24  H    0.005197  -0.000277   0.000012  -0.000140  -0.003082   0.442608
    25  H    0.000003   0.000041  -0.001645   0.000002   0.000000   0.000000
    26  H    0.000000   0.000000   0.000000   0.000000   0.000000   0.000000
    27  H    0.000000   0.000001   0.000000   0.000000   0.000000   0.000000
    28  H   -0.000002  -0.000466  -0.000001   0.000000   0.000000   0.000000
    29  H    0.002191   0.051580  -0.000007   0.000002   0.000000  -0.000004
    30  H    0.142320   0.007963   0.000000   0.000000   0.000000   0.000096
              25         26         27         28         29         30
     1  C   -0.053223   0.000027  -0.000198   0.022395   0.014370   0.027021
     2  C   -0.072002   0.001482   0.001211  -0.023732  -0.116584   0.000715
     3  C    0.081740  -0.000401  -0.000774  -0.008208   0.052534   0.005043
     4  C    0.013290  -0.000014  -0.000127  -0.000565   0.003375   0.000694
     5  C   -0.002570   0.000001  -0.000001   0.000100   0.000381  -0.011518
     6  C    0.004818  -0.000003   0.000005   0.000480   0.016580   0.004550
     7  C   -0.002659   0.000009  -0.000029   0.001456  -0.025283  -0.003040
     8  C   -0.026655   0.016768  -0.006399  -0.008464  -0.014431  -0.000518
     9  C   -0.021817   0.032738  -0.017121   0.123863   0.022580  -0.000244
    10  C    0.196768   0.002809   0.005296   0.016641   0.017567  -0.000040
    11  C    0.061323   0.270206   0.040769  -0.027597  -0.006195   0.000004
    12  C   -0.022171   0.012399   0.256643  -0.022145   0.014977  -0.000009
    13  C    0.066375  -0.014778   0.028363   0.231800  -0.013652   0.000196
    14  C    0.051939  -0.025521   0.001487   0.006538   0.001861  -0.000001
    15  F    0.000342   0.000040   0.000010   0.000001   0.000001   0.000000
    16  F    0.004260   0.000085   0.000009   0.000002   0.000000   0.000000
    17  F    0.000471   0.005638   0.000066  -0.000002   0.000000   0.000000
    18  N    0.008860   0.000070  -0.000296  -0.015007   0.208437  -0.000503
    19  O    0.000003   0.000000   0.000000  -0.000002   0.002191   0.142320
    20  O    0.000041   0.000000   0.000001  -0.000466   0.051580   0.007963
    21  H   -0.001645   0.000000   0.000000  -0.000001  -0.000007   0.000000
    22  H    0.000002   0.000000   0.000000   0.000000   0.000002   0.000000
    23  H    0.000000   0.000000   0.000000   0.000000   0.000000   0.000000
    24  H    0.000000   0.000000   0.000000   0.000000  -0.000004   0.000096
    25  H    0.441360  -0.000113   0.000015  -0.000124  -0.000081   0.000000
    26  H   -0.000113   0.442075  -0.002986  -0.000105   0.000000   0.000000
    27  H    0.000015  -0.002986   0.449633  -0.003260  -0.000006   0.000000
    28  H   -0.000124  -0.000105  -0.003260   0.452054   0.002200   0.000000
    29  H   -0.000081   0.000000  -0.000006   0.002200   0.261147  -0.000004
    30  H    0.000000   0.000000   0.000000   0.000000  -0.000004   0.254118
 Mulliken charges:
               1
     1  C   -0.028095
     2  C   -0.320751
     3  C    0.058936
     4  C   -0.597630
     5  C   -0.395153
     6  C    0.050494
     7  C    0.720132
     8  C    0.216928
     9  C    0.950869
    10  C   -1.110731
    11  C   -0.547362
    12  C   -0.330927
    13  C   -0.541351
    14  C    1.380317
    15  F   -0.268433
    16  F   -0.280874
    17  F   -0.330913
    18  N   -0.486876
    19  O   -0.675065
    20  O   -0.566152
    21  H    0.248916
    22  H    0.242898
    23  H    0.239353
    24  H    0.260993
    25  H    0.271453
    26  H    0.259574
    27  H    0.247686
    28  H    0.252145
    29  H    0.506463
    30  H    0.573158
 Sum of Mulliken charges =   0.00000
 Mulliken charges with hydrogens summed into heavy atoms:
               1
     1  C   -0.028095
     2  C   -0.320751
     3  C    0.307852
     4  C   -0.354733
     5  C   -0.155800
     6  C    0.311486
     7  C    0.720132
     8  C    0.216928
     9  C    1.222322
    10  C   -1.110731
    11  C   -0.287787
    12  C   -0.083241
    13  C   -0.289207
    14  C    1.380317
    15  F   -0.268433
    16  F   -0.280874
    17  F   -0.330913
    18  N    0.019587
    19  O   -0.101907
    20  O   -0.566152
 Electronic spatial extent (au):  <R**2>=           6764.8998
 Charge=              0.0000 electrons
 Dipole moment (field-independent basis, Debye):
    X=             -3.0093    Y=              0.9368    Z=             -0.6568  Tot=              3.2194
 Quadrupole moment (field-independent basis, Debye-Ang):
   XX=           -116.4146   YY=            -96.9009   ZZ=           -113.9871
   XY=              1.7426   XZ=             -5.3078   YZ=             -0.8542
 Traceless Quadrupole moment (field-independent basis, Debye-Ang):
   XX=             -7.3138   YY=             12.2000   ZZ=             -4.8863
   XY=              1.7426   XZ=             -5.3078   YZ=             -0.8542
 Octapole moment (field-independent basis, Debye-Ang**2):
  XXX=            -10.4668  YYY=            -40.2155  ZZZ=             16.3853  XYY=            -24.4822
  XXY=             35.7305  XXZ=             26.6888  XZZ=             21.2796  YZZ=             12.4032
  YYZ=              5.3118  XYZ=            -24.2646
 Hexadecapole moment (field-independent basis, Debye-Ang**3):
 XXXX=          -3111.1579 YYYY=          -4069.2648 ZZZZ=           -726.4808 XXXY=           1052.3495
 XXXZ=             45.4708 YYYX=           1092.2895 YYYZ=            149.1967 ZZZX=            119.0463
 ZZZY=            216.0215 XXYY=          -1165.9230 XXZZ=           -632.8654 YYZZ=           -819.9449
 XXYZ=            183.3275 YYXZ=            -42.0241 ZZXY=            356.9005
 N-N= 1.499545117726D+03 E-N=-5.442299624905D+03  KE= 1.034795793930D+03
 No NMR shielding tensors so no spin-rotation constants.
 Leave Link  601 at Fri Oct 20 13:36:48 2017, MaxMem=   196608000 cpu:         0.3
 (Enter /usr/local/g09_d01/l602.exe)
 FitSet:  NAtFit=    30 NAtPot=    30 NAtFrz=     0 MDM=    34 TotChg=   0.00000
 Breneman (CHELPG) radii used.
 Generate Potential Derived Charges using the Breneman model, NDens= 1.
 Grid spacing= 0.300 Box extension= 2.800
 NStep X,Y,Z=   46     51     36   Total possible points=       84456
 Number of Points to Fit=   18169

 **********************************************************************

            Electrostatic Properties Using The SCF Density

 **********************************************************************

       Atomic Center    1 is at  -1.892400  2.529157 -0.023267
       Atomic Center    2 is at  -1.139647  1.380078 -0.403113
       Atomic Center    3 is at  -0.189793  1.526381 -1.434629
       Atomic Center    4 is at   0.028606  2.754042 -2.034122
       Atomic Center    5 is at  -0.688185  3.889950 -1.642199
       Atomic Center    6 is at  -1.644112  3.761501 -0.651655
       Atomic Center    7 is at  -2.938175  2.437843  1.000031
       Atomic Center    8 is at  -0.629045 -1.005818  0.139887
       Atomic Center    9 is at   0.769145 -1.005818  0.139887
       Atomic Center   10 is at   1.464472 -2.213697  0.139887
       Atomic Center   11 is at   0.792973 -3.432813  0.166828
       Atomic Center   12 is at  -0.600571 -3.429842  0.198092
       Atomic Center   13 is at  -1.306014 -2.234302  0.175263
       Atomic Center   14 is at   2.965603 -2.165091  0.104775
       Atomic Center   15 is at   3.420306 -1.715741 -1.086326
       Atomic Center   16 is at   3.463603 -1.330180  1.039539
       Atomic Center   17 is at   3.526294 -3.369146  0.308289
       Atomic Center   18 is at  -1.387985  0.167720  0.185199
       Atomic Center   19 is at  -3.529669  3.613104  1.277974
       Atomic Center   20 is at  -3.296218  1.413787  1.571152
       Atomic Center   21 is at   0.355284  0.656077 -1.783760
       Atomic Center   22 is at   0.764760  2.824539 -2.831299
       Atomic Center   23 is at  -0.508883  4.850609 -2.114982
       Atomic Center   24 is at  -2.229164  4.620929 -0.342179
       Atomic Center   25 is at   1.314249 -0.067503  0.171245
       Atomic Center   26 is at   1.346834 -4.365335  0.171277
       Atomic Center   27 is at  -1.141931 -4.371474  0.226844
       Atomic Center   28 is at  -2.393302 -2.237068  0.178864
       Atomic Center   29 is at  -2.179927  0.159518  0.825724
       Atomic Center   30 is at  -4.243840  3.456667  1.916424
   18169 points will be used for fitting atomic charges
 Fitting point charges to electrostatic potential
 Charges from ESP fit, RMS=   0.00409 RRMS=   0.32469:
 ESP charges:
               1
     1  C   -0.310975
     2  C    0.541361
     3  C   -0.265378
     4  C   -0.028423
     5  C   -0.224609
     6  C   -0.019258
     7  C    0.801120
     8  C    0.546265
     9  C   -0.286436
    10  C    0.021545
    11  C   -0.193013
    12  C   -0.038666
    13  C   -0.310340
    14  C    0.596272
    15  F   -0.220960
    16  F   -0.229832
    17  F   -0.213858
    18  N   -0.885114
    19  O   -0.652379
    20  O   -0.662943
    21  H    0.119411
    22  H    0.124265
    23  H    0.130186
    24  H    0.128712
    25  H    0.152209
    26  H    0.140541
    27  H    0.120950
    28  H    0.169758
    29  H    0.468959
    30  H    0.480631
 Sum of ESP charges =   0.00000
 ESP charges with hydrogens summed into heavy atoms:
               1
     1  C   -0.310975
     2  C    0.541361
     3  C   -0.145967
     4  C    0.095842
     5  C   -0.094423
     6  C    0.109453
     7  C    0.801120
     8  C    0.546265
     9  C   -0.134227
    10  C    0.021545
    11  C   -0.052472
    12  C    0.082285
    13  C   -0.140582
    14  C    0.596272
    15  F   -0.220960
    16  F   -0.229832
    17  F   -0.213858
    18  N   -0.416155
    19  O   -0.171748
    20  O   -0.662943
 Charge=   0.00000 Dipole=    -3.1577     0.9352    -0.7413 Tot=     3.3757
 -----------------------------------------------------------------

              Electrostatic Properties (Atomic Units)

 -----------------------------------------------------------------
    Center     Electric         -------- Electric Field --------
               Potential          X             Y             Z
 -----------------------------------------------------------------
    1 Atom    -14.707054
    2 Atom    -14.661544
    3 Atom    -14.722254
    4 Atom    -14.712604
    5 Atom    -14.726556
    6 Atom    -14.715562
    7 Atom    -14.584423
    8 Atom    -14.667049
    9 Atom    -14.710242
   10 Atom    -14.697239
   11 Atom    -14.711364
   12 Atom    -14.708660
   13 Atom    -14.711582
   14 Atom    -14.470856
   15 Atom    -26.497310
   16 Atom    -26.496177
   17 Atom    -26.491050
   18 Atom    -18.292463
   19 Atom    -22.230025
   20 Atom    -22.298289
   21 Atom     -1.080685
   22 Atom     -1.079238
   23 Atom     -1.085165
   24 Atom     -1.084296
   25 Atom     -1.070231
   26 Atom     -1.074732
   27 Atom     -1.072665
   28 Atom     -1.069712
   29 Atom     -1.004573
   30 Atom     -0.911519
 -----------------------------------------------------------------
 Leave Link  602 at Fri Oct 20 13:36:54 2017, MaxMem=   196608000 cpu:         5.8
 (Enter /usr/local/g09_d01/l9999.exe)
 1\1\GINC-NODE3\SP\RPBE1PBE\6-31+G(d)\C14H10F3N1O2\DCASE\20-Oct-2017\0\
 \#PBE1PBE/6-31+G(d) density=current FormCheck=All SCRF=(PCM,Read,G03De
 faults) #Pop=ChelpG nosymm\\Charge density of molecule 1\\0,1\C,0,-1.8
 924,2.529157,-0.023267\C,0,-1.139647,1.380078,-0.403113\C,0,-0.189793,
 1.526381,-1.434629\C,0,0.028606,2.754042,-2.034122\C,0,-0.688185,3.889
 95,-1.642199\C,0,-1.644112,3.761501,-0.651655\C,0,-2.938175,2.437843,1
 .000031\C,0,-0.629045,-1.005818,0.139887\C,0,0.769145,-1.005818,0.1398
 87\C,0,1.464472,-2.213697,0.139887\C,0,0.792973,-3.432813,0.166828\C,0
 ,-0.600571,-3.429842,0.198092\C,0,-1.306014,-2.234302,0.175263\C,0,2.9
 65603,-2.165091,0.104775\F,0,3.420306,-1.715741,-1.086326\F,0,3.463603
 ,-1.33018,1.039539\F,0,3.526294,-3.369146,0.308289\N,0,-1.387985,0.167
 72,0.185199\O,0,-3.529669,3.613104,1.277974\O,0,-3.296218,1.413787,1.5
 71152\H,0,0.355284,0.656077,-1.78376\H,0,0.76476,2.824539,-2.831299\H,
 0,-0.508883,4.850609,-2.114982\H,0,-2.229164,4.620929,-0.342179\H,0,1.
 314249,-0.067503,0.171245\H,0,1.346834,-4.365335,0.171277\H,0,-1.14193
 1,-4.371474,0.226844\H,0,-2.393302,-2.237068,0.178864\H,0,-2.179927,0.
 159518,0.825724\H,0,-4.24384,3.456667,1.916424\\Version=ES64L-G09RevD.
 01\HF=-1043.2092818\RMSD=3.504e-09\Dipole=-1.1839366,0.3685729,-0.2584
 162\Quadrupole=-5.4375943,9.0704076,-3.6328132,1.2955667,-3.9461865,-0
 .6350531\PG=C01 [X(C14H10F3N1O2)]\\@


 THIS CURIOUS WORLD WHICH WE INHABIT IS MORE WONDERFUL THAN IT IS CONVENIENT;
 MORE BEAUTIFUL THAN IT IS USEFUL;
 IT IS MORE TO BE ADMIRED THAN IT IS TO BE USED.

                                                                 -- THOREAU
 Job cpu time:       0 days  0 hours 12 minutes 31.2 seconds.
 File lengths (MBytes):  RWF=    210 Int=      0 D2E=      0 Chk=      8 Scr=      1
 Normal termination of Gaussian 09 at Fri Oct 20 13:36:54 2017.
