 Entering Gaussian System, Link 0=/usr/local/g09_d01/g09
 Input=act_mult1.com
 Output=act_mult1.log
 Initial command:
 /usr/local/g09_d01/l1.exe "/tmp/641769.1.all.q/Gau-5236.inp" -scrdir="/tmp/641769.1.all.q/"
 Entering Link 1 = /usr/local/g09_d01/l1.exe PID=      5238.
  
 Copyright (c) 1988,1990,1992,1993,1995,1998,2003,2009,2013,
            Gaussian, Inc.  All Rights Reserved.
  
 This is part of the Gaussian(R) 09 program.  It is based on
 the Gaussian(R) 03 system (copyright 2003, Gaussian, Inc.),
 the Gaussian(R) 98 system (copyright 1998, Gaussian, Inc.),
 the Gaussian(R) 94 system (copyright 1995, Gaussian, Inc.),
 the Gaussian 92(TM) system (copyright 1992, Gaussian, Inc.),
 the Gaussian 90(TM) system (copyright 1990, Gaussian, Inc.),
 the Gaussian 88(TM) system (copyright 1988, Gaussian, Inc.),
 the Gaussian 86(TM) system (copyright 1986, Carnegie Mellon
 University), and the Gaussian 82(TM) system (copyright 1983,
 Carnegie Mellon University). Gaussian is a federally registered
 trademark of Gaussian, Inc.
  
 This software contains proprietary and confidential information,
 including trade secrets, belonging to Gaussian, Inc.
  
 This software is provided under written license and may be
 used, copied, transmitted, or stored only in accord with that
 written license.
  
 The following legend is applicable only to US Government
 contracts under FAR:
  
                    RESTRICTED RIGHTS LEGEND
  
 Use, reproduction and disclosure by the US Government is
 subject to restrictions as set forth in subparagraphs (a)
 and (c) of the Commercial Computer Software - Restricted
 Rights clause in FAR 52.227-19.
  
 Gaussian, Inc.
 340 Quinnipiac St., Bldg. 40, Wallingford CT 06492
  
  
 ---------------------------------------------------------------
 Warning -- This program may not be used in any manner that
 competes with the business of Gaussian, Inc. or will provide
 assistance to any competitor of Gaussian, Inc.  The licensee
 of this program is prohibited from giving any competitor of
 Gaussian, Inc. access to this program.  By using this program,
 the user acknowledges that Gaussian, Inc. is engaged in the
 business of creating and licensing software in the field of
 computational chemistry and represents and warrants to the
 licensee that it is not a competitor of Gaussian, Inc. and that
 it will not use this program in any manner prohibited above.
 ---------------------------------------------------------------
  

 Cite this work as:
 Gaussian 09, Revision D.01,
 M. J. Frisch, G. W. Trucks, H. B. Schlegel, G. E. Scuseria, 
 M. A. Robb, J. R. Cheeseman, G. Scalmani, V. Barone, B. Mennucci, 
 G. A. Petersson, H. Nakatsuji, M. Caricato, X. Li, H. P. Hratchian, 
 A. F. Izmaylov, J. Bloino, G. Zheng, J. L. Sonnenberg, M. Hada, 
 M. Ehara, K. Toyota, R. Fukuda, J. Hasegawa, M. Ishida, T. Nakajima, 
 Y. Honda, O. Kitao, H. Nakai, T. Vreven, J. A. Montgomery, Jr., 
 J. E. Peralta, F. Ogliaro, M. Bearpark, J. J. Heyd, E. Brothers, 
 K. N. Kudin, V. N. Staroverov, T. Keith, R. Kobayashi, J. Normand, 
 K. Raghavachari, A. Rendell, J. C. Burant, S. S. Iyengar, J. Tomasi, 
 M. Cossi, N. Rega, J. M. Millam, M. Klene, J. E. Knox, J. B. Cross, 
 V. Bakken, C. Adamo, J. Jaramillo, R. Gomperts, R. E. Stratmann, 
 O. Yazyev, A. J. Austin, R. Cammi, C. Pomelli, J. W. Ochterski, 
 R. L. Martin, K. Morokuma, V. G. Zakrzewski, G. A. Voth, 
 P. Salvador, J. J. Dannenberg, S. Dapprich, A. D. Daniels, 
 O. Farkas, J. B. Foresman, J. V. Ortiz, J. Cioslowski, 
 and D. J. Fox, Gaussian, Inc., Wallingford CT, 2013.
 
 ******************************************
 Gaussian 09:  ES64L-G09RevD.01 24-Apr-2013
                29-Sep-2017 
 ******************************************
 %mem=1500MB
 %Nprocs= 1
 Will use up to    1 processors via shared memory.
 %rwf=a,1800MB,b,1800MB,c,1800MB,d,7200MB,e,7200MB,f,7200MB,g,7200MB,h,7200MB,j,1
 4400MB
 %nosave
 %chk=obs
 ----------------------------------------------------------------------
 #PBE1PBE/6-31+G(d) density=current FormCheck=All SCRF=(PCM,Read,G03Def
 aults) #Pop=ChelpG nosymm
 ----------------------------------------------------------------------
 1/30=1,38=1,40=2/1;
 2/12=2,15=1,17=6,18=5,40=1/2;
 3/5=1,6=6,7=11,11=2,16=1,25=1,30=1,70=302203,72=1,74=-13/1,2,3;
 4//1;
 5/5=2,38=5/2;
 6/7=2,8=2,9=2,10=2,15=8,20=3,22=-1,28=1/1,2;
 99/5=1,9=1/99;
 Leave Link    1 at Fri Sep 29 15:54:08 2017, MaxMem=   196608000 cpu:         0.0
 (Enter /usr/local/g09_d01/l101.exe)
 ----------------------------
 Charge density of molecule 1
 ----------------------------
 Symbolic Z-matrix:
 Charge =  0 Multiplicity = 1
 C                    -0.34983   3.90099   0.78596 
 C                    -1.28508   2.87346   0.30867 
 C                    -2.65138   3.18391   0.21763 
 C                    -3.54931   2.33482  -0.4057 
 C                    -3.06185   1.17663  -1.01634 
 C                    -1.71885   0.84284  -0.94791 
 C                    -0.80202   1.65363  -0.25259 
 C                     1.14633   0.06376  -0.14662 
 C                     2.55171   0.06376  -0.14662 
 C                     3.26728  -1.12527  -0.14662 
 C                     2.60796  -2.35092  -0.13469 
 C                     1.21509  -2.35366  -0.09474 
 C                     0.48187  -1.17106  -0.08999 
 C                     0.50414  -3.67699  -0.06049 
 F                     0.69827  -4.37478  -1.20067 
 F                    -0.82595  -3.55114   0.09824 
 F                     0.95004  -4.45934   0.94351 
 N                     0.51537   1.29955  -0.07754 
 O                    -0.94801   5.03737   1.1838 
 O                     0.87177   3.80873   0.78732 
 H                    -0.27622   5.72966   1.28935 
 H                    -2.99186   4.12394   0.63836 
 H                    -4.60418   2.58687  -0.45345 
 H                    -3.73699   0.52651  -1.56751 
 H                    -1.36257  -0.0369   -1.47041 
 H                     1.10742   2.08729   0.18066 
 H                     3.08058   1.01435  -0.15736 
 H                     4.35334  -1.09367  -0.15653 
 H                     3.16258  -3.28412  -0.14203 
 H                    -0.59471  -1.22004   0.00535 
 
 NAtoms=     30 NQM=       30 NQMF=       0 NMMI=      0 NMMIF=      0
                NMic=       0 NMicF=      0.
                    Isotopes and Nuclear Properties:
 (Nuclear quadrupole moments (NQMom) in fm**2, nuclear magnetic moments (NMagM)
  in nuclear magnetons)

  Atom         1           2           3           4           5           6           7           8           9          10
 IAtWgt=          12          12          12          12          12          12          12          12          12          12
 AtmWgt=  12.0000000  12.0000000  12.0000000  12.0000000  12.0000000  12.0000000  12.0000000  12.0000000  12.0000000  12.0000000
 NucSpn=           0           0           0           0           0           0           0           0           0           0
 AtZEff=   0.0000000   0.0000000   0.0000000   0.0000000   0.0000000   0.0000000   0.0000000   0.0000000   0.0000000   0.0000000
 NQMom=    0.0000000   0.0000000   0.0000000   0.0000000   0.0000000   0.0000000   0.0000000   0.0000000   0.0000000   0.0000000
 NMagM=    0.0000000   0.0000000   0.0000000   0.0000000   0.0000000   0.0000000   0.0000000   0.0000000   0.0000000   0.0000000
 AtZNuc=   6.0000000   6.0000000   6.0000000   6.0000000   6.0000000   6.0000000   6.0000000   6.0000000   6.0000000   6.0000000

  Atom        11          12          13          14          15          16          17          18          19          20
 IAtWgt=          12          12          12          12          19          19          19          14          16          16
 AtmWgt=  12.0000000  12.0000000  12.0000000  12.0000000  18.9984033  18.9984033  18.9984033  14.0030740  15.9949146  15.9949146
 NucSpn=           0           0           0           0           1           1           1           2           0           0
 AtZEff=   0.0000000   0.0000000   0.0000000   0.0000000   0.0000000   0.0000000   0.0000000   0.0000000   0.0000000   0.0000000
 NQMom=    0.0000000   0.0000000   0.0000000   0.0000000   0.0000000   0.0000000   0.0000000   2.0440000   0.0000000   0.0000000
 NMagM=    0.0000000   0.0000000   0.0000000   0.0000000   2.6288670   2.6288670   2.6288670   0.4037610   0.0000000   0.0000000
 AtZNuc=   6.0000000   6.0000000   6.0000000   6.0000000   9.0000000   9.0000000   9.0000000   7.0000000   8.0000000   8.0000000

  Atom        21          22          23          24          25          26          27          28          29          30
 IAtWgt=           1           1           1           1           1           1           1           1           1           1
 AtmWgt=   1.0078250   1.0078250   1.0078250   1.0078250   1.0078250   1.0078250   1.0078250   1.0078250   1.0078250   1.0078250
 NucSpn=           1           1           1           1           1           1           1           1           1           1
 AtZEff=   0.0000000   0.0000000   0.0000000   0.0000000   0.0000000   0.0000000   0.0000000   0.0000000   0.0000000   0.0000000
 NQMom=    0.0000000   0.0000000   0.0000000   0.0000000   0.0000000   0.0000000   0.0000000   0.0000000   0.0000000   0.0000000
 NMagM=    2.7928460   2.7928460   2.7928460   2.7928460   2.7928460   2.7928460   2.7928460   2.7928460   2.7928460   2.7928460
 AtZNuc=   1.0000000   1.0000000   1.0000000   1.0000000   1.0000000   1.0000000   1.0000000   1.0000000   1.0000000   1.0000000
 Leave Link  101 at Fri Sep 29 15:54:08 2017, MaxMem=   196608000 cpu:         0.1
 (Enter /usr/local/g09_d01/l202.exe)
                          Input orientation:                          
 ---------------------------------------------------------------------
 Center     Atomic      Atomic             Coordinates (Angstroms)
 Number     Number       Type             X           Y           Z
 ---------------------------------------------------------------------
      1          6           0       -0.349826    3.900992    0.785959
      2          6           0       -1.285082    2.873463    0.308671
      3          6           0       -2.651383    3.183906    0.217626
      4          6           0       -3.549312    2.334815   -0.405703
      5          6           0       -3.061849    1.176631   -1.016336
      6          6           0       -1.718849    0.842839   -0.947911
      7          6           0       -0.802015    1.653630   -0.252590
      8          6           0        1.146327    0.063760   -0.146615
      9          6           0        2.551711    0.063760   -0.146615
     10          6           0        3.267275   -1.125267   -0.146615
     11          6           0        2.607958   -2.350920   -0.134692
     12          6           0        1.215090   -2.353662   -0.094738
     13          6           0        0.481873   -1.171059   -0.089990
     14          6           0        0.504139   -3.676989   -0.060490
     15          9           0        0.698266   -4.374778   -1.200674
     16          9           0       -0.825951   -3.551142    0.098238
     17          9           0        0.950042   -4.459338    0.943514
     18          7           0        0.515368    1.299545   -0.077539
     19          8           0       -0.948013    5.037371    1.183801
     20          8           0        0.871773    3.808728    0.787317
     21          1           0       -0.276218    5.729658    1.289354
     22          1           0       -2.991859    4.123942    0.638358
     23          1           0       -4.604183    2.586873   -0.453447
     24          1           0       -3.736993    0.526510   -1.567507
     25          1           0       -1.362568   -0.036902   -1.470410
     26          1           0        1.107415    2.087294    0.180664
     27          1           0        3.080577    1.014355   -0.157361
     28          1           0        4.353339   -1.093669   -0.156532
     29          1           0        3.162578   -3.284118   -0.142026
     30          1           0       -0.594708   -1.220037    0.005354
 ---------------------------------------------------------------------
                    Distance matrix (angstroms):
                    1          2          3          4          5
     1  C    0.000000
     2  C    1.469123   0.000000
     3  C    2.476768   1.404081   0.000000
     4  C    3.756285   2.434586   1.384114   0.000000
     5  C    4.245642   2.791377   2.391714   1.397098   0.000000
     6  C    3.772642   2.427053   2.776453   2.422927   1.385550
     7  C    2.516683   1.427011   2.446019   2.834625   2.432629
     8  C    4.222857   3.743456   4.928548   5.222437   4.438878
     9  C    4.900302   4.777311   6.077843   6.515159   5.788519
    10  C    6.262299   6.076272   7.330222   7.648866   6.790652
    11  C    6.977284   6.530429   7.643238   7.742192   6.735549
    12  C    6.507326   5.808307   6.761053   6.691640   5.621790
    13  C    5.213896   4.431616   5.373792   5.351755   4.350601
    14  C    7.672778   6.800442   7.556887   7.258886   6.098159
    15  F    8.575172   7.664776   8.388410   7.980760   6.707502
    16  F    7.498930   6.444426   6.979063   6.505009   5.347275
    17  F    8.462245   7.692124   8.480351   8.259848   7.190301
    18  N    2.874320   2.422395   3.696789   4.207267   3.700396
    19  O    1.344419   2.358382   2.696349   4.073952   4.920795
    20  O    1.225079   2.399134   3.623200   4.810583   5.065025
    21  H    1.898116   3.183928   3.642920   5.011120   5.814293
    22  H    2.655528   2.141373   1.084715   2.145179   3.380762
    23  H    4.621968   3.417512   2.149469   1.085618   2.164352
    24  H    5.329055   3.878157   3.380385   2.157540   1.087321
    25  H    4.650146   3.411943   3.857993   3.397130   2.136914
    26  H    2.404045   2.521605   3.915672   4.700021   4.432254
    27  H    4.581505   4.767856   6.140271   6.764667   6.204319
    28  H    6.924932   6.909873   8.216068   8.617916   7.802470
    29  H    8.051332   7.609245   8.704414   8.757363   7.707541
    30  H    5.185967   4.162374   4.865150   4.640649   3.588127
                    6          7          8          9         10
     6  C    0.000000
     7  C    1.407636   0.000000
     8  C    3.075431   2.516933   0.000000
     9  C    4.414377   3.713004   1.405384   0.000000
    10  C    5.420051   4.928754   2.431503   1.387738   0.000000
    11  C    5.438996   5.261011   2.822621   2.415364   1.391785
    12  C    4.421936   4.489100   2.418956   2.762820   2.392302
    13  C    3.104028   3.107036   1.403383   2.410853   2.786354
    14  C    5.114493   5.491670   3.796449   4.265345   3.762130
    15  F    5.755855   6.284219   4.583930   4.924116   4.274362
    16  F    4.604212   5.216637   4.125209   4.953390   4.764381
    17  F    6.230052   6.470606   4.656750   4.920583   4.204043
    18  N    2.440871   1.375324   1.389261   2.382987   3.668443
    19  O    4.767859   3.678891   5.558154   6.225342   7.583981
    20  O    4.303352   2.920175   3.869418   4.209419   5.563719
    21  H    5.564848   4.389540   6.015650   6.493196   7.849098
    22  H    3.860368   3.419305   5.850286   6.916099   8.206530
    23  H    3.407536   3.920174   6.287178   7.593883   8.708271
    24  H    2.134682   3.407859   5.106847   6.463812   7.335330
    25  H    1.083460   2.157592   2.838507   4.133297   4.936843
    26  H    3.287874   2.005417   2.050199   2.507547   3.884927
    27  H    4.867122   3.936021   2.155242   1.087863   2.147779
    28  H    6.422446   5.842478   3.409496   2.141402   1.086569
    29  H    6.442791   6.333370   3.908142   3.403155   2.161393
    30  H    2.535323   2.892659   2.168509   3.401644   3.866134
                   11         12         13         14         15
    11  C    0.000000
    12  C    1.393444   0.000000
    13  C    2.431935   1.391467   0.000000
    14  C    2.487975   1.502604   2.506203   0.000000
    15  F    2.979806   2.361167   3.397685   1.350783   0.000000
    16  F    3.645068   2.374247   2.722247   1.345426   2.165361
    17  F    2.890785   2.362645   3.478519   1.348675   2.160575
    18  N    4.208099   3.719654   2.470862   4.976576   5.787299
    19  O    8.304830   7.806475   6.497055   8.921719   9.848071
    20  O    6.465733   6.234656   5.071486   7.542539   8.423300
    21  H    8.697248   8.335453   7.077937   9.534990  10.452248
    22  H    8.595312   7.758557   6.374507   8.576999   9.446020
    23  H    8.746335   7.642087   6.334202   8.092301   8.782875
    24  H    7.112733   5.915029   4.781593   6.158547   6.620326
    25  H    4.785802   3.728830   2.567846   4.326974   4.810090
    26  H    4.695617   4.450790   3.328877   5.800781   6.620715
    27  H    3.398376   3.850650   3.396150   5.353142   5.983867
    28  H    2.151165   3.382308   3.872811   4.636713   5.021501
    29  H    1.085595   2.158864   3.413782   2.688549   2.895360
    30  H    3.399350   2.137871   1.081904   2.692288   3.616445
                   16         17         18         19         20
    16  F    0.000000
    17  F    2.166440   0.000000
    18  N    5.035792   5.864829   0.000000
    19  O    8.657708   9.687509   4.207589   0.000000
    20  O    7.584509   8.269912   2.677872   2.231229   0.000000
    21  H    9.373058  10.268347   4.703287   0.970418   2.293446
    22  H    7.993110   9.450100   4.559646   2.304163   3.879330
    23  H    7.228736   9.080199   5.292289   4.696073   5.746174
    24  H    5.279784   7.289184   4.571669   5.974611   6.128530
    25  H    3.885678   5.543747   2.693107   5.741510   4.987833
    26  H    5.961263   6.592806   1.018694   3.732830   1.840351
    27  H    6.014155   5.975987   2.582247   5.849180   3.685072
    28  H    5.738391   4.911238   4.523686   8.215259   6.086514
    29  H    4.004671   2.730358   5.293566   9.375604   7.511320
    30  H    2.344387   3.709376   2.754530   6.377203   5.296273
                   21         22         23         24         25
    21  H    0.000000
    22  H    3.221308   0.000000
    23  H    5.625454   2.480768   0.000000
    24  H    6.871053   4.285158   2.497648   0.000000
    25  H    6.484572   4.941064   4.292607   2.442285   0.000000
    26  H    4.050981   4.600159   5.768364   5.381490   3.652269
    27  H    5.966166   6.868565   7.849587   6.978952   4.750871
    28  H    8.371450   9.044736   9.688743   8.370741   5.959415
    29  H    9.753067   9.662580   9.741052   8.009804   5.725903
    30  H    7.074486   5.891107   5.547878   3.924063   2.041396
                   26         27         28         29         30
    26  H    0.000000
    27  H    2.271305   0.000000
    28  H    4.557219   2.462456   0.000000
    29  H    5.760199   4.299282   2.493229   0.000000
    30  H    3.723761   4.304266   4.952307   4.289446   0.000000
 Symmetry turned off by external request.
 Stoichiometry    C14H10F3NO2
 Framework group  C1[X(C14H10F3NO2)]
 Deg. of freedom    84
 Full point group                 C1      NOp   1
 Rotational constants (GHZ):      0.6452059      0.1744211      0.1445448
 Leave Link  202 at Fri Sep 29 15:54:08 2017, MaxMem=   196608000 cpu:         0.0
 (Enter /usr/local/g09_d01/l301.exe)
 Standard basis: 6-31+G(d) (6D, 7F)
 Ernie: Thresh=  0.10000D-02 Tol=  0.10000D-05 Strict=F.
   400 basis functions,   680 primitive gaussians,   400 cartesian basis functions
    72 alpha electrons       72 beta electrons
       nuclear repulsion energy      1497.6289307802 Hartrees.
 IExCor= 1009 DFT=T Ex+Corr=PBE1PBE ExCW=0 ScaHFX=  0.250000
 ScaDFX=  0.750000  0.750000  1.000000  1.000000 ScalE2=  1.000000  1.000000
 IRadAn=      0 IRanWt=     -1 IRanGd=            0 ICorTp=0 IEmpDi=  4
 NAtoms=   30 NActive=   30 NUniq=   30 SFac= 1.00D+00 NAtFMM=   60 NAOKFM=F Big=F
 Integral buffers will be    131072 words long.
 Raffenetti 2 integral format.
 Two-electron integral symmetry is turned off.
 Warning! Using old PCM defaults because it has been requested by the route generator.
 These settings can be overridden by following keywords.
 Using the following non-standard input for PCM:
 EPS=3.0
 --- end of non-standard input.
 ------------------------------------------------------------------------------
 United Atom Topological Model (UA0  parameters set).
  Nord Group  Hybr  Charge Alpha Radius          Bonded to
    1   C     *     0.00   1.00  1.925   C2   [s]  O19  [s]  O20  [d]
    2   C     *     0.00   1.00  1.925   C1   [s]  C3   [s]  C7   [s]
    3   CH    *     0.00   1.00  2.125   C2   [s]  C4   [d]
    4   CH    *     0.00   1.00  2.125   C3   [d]  C5   [s]
    5   CH    *     0.00   1.00  2.125   C4   [s]  C6   [d]
    6   CH    *     0.00   1.00  2.125   C5   [d]  C7   [s]
    7   C     *     0.00   1.00  1.925   C2   [s]  C6   [s]  N18  [s]
    8   C     *     0.00   1.00  1.925   C9   [s]  C13  [s]  N18  [s]
    9   CH    *     0.00   1.00  2.125   C8   [s]  C10  [d]
   10   CH    *     0.00   1.00  2.125   C9   [d]  C11  [d]
   11   CH    *     0.00   1.00  2.125   C10  [d]  C12  [s]
   12   C     *     0.00   1.00  1.925   C11  [s]  C13  [d]  C14  [s]
   13   CH    *     0.00   1.00  2.125   C8   [s]  C12  [d]
   14   C     *     0.00   1.00  1.925   C12  [s]  F15  [s]  F16  [s]  F17  [s]
   15   F     *     0.00   1.00  1.682   C14  [s]
   16   F     *     0.00   1.00  1.682   C14  [s]
   17   F     *     0.00   1.00  1.682   C14  [s]
   18   NH    *     0.00   1.00  1.930   C7   [s]  C8   [s]
   19   OH    *     0.00   1.00  1.850   C1   [s]
   20   O     *     0.00   1.00  1.750   C1   [d]
 ------------------------------------------------------------------------------
 Polarizable Continuum Model (PCM)
 =================================
 Model                : PCM (using non-symmetric T matrix).
 Atomic radii         : UA0 (Simple United Atom Topological Model).
 Polarization charges : Total charges.
 Charge compensation  : None.
 Solution method      : On-the-fly selection.
 Cavity type          : SES (Solvent Excluding Surface) (Alpha=1.000).
 Cavity algorithm     : GePol (RMin=0.200 OFac=0.890).
                        Default sphere list used, NSphG=   20.
                        Tesserae with average area of 0.200 Ang**2.
                        Smoothing algorithm: None.
                        Polarization charges: point-like.
                        Self-potential: constant (ISelfS= 1).
                        Self-field    : global E.n sum rule (ISelfD= 3).
 Solvent              : Water, Eps=   3.000000 Eps(inf)=   1.777849
                        RSolv=   1.385000 Ang.
 ------------------------------------------------------------------------------
 Spheres list:
 ISph  on   Nord     Re0    Alpha      Xe            Ye            Ze
    1   C      1    1.9250  1.000     -0.349826      3.900992      0.785959
    2   C      2    1.9250  1.000     -1.285082      2.873463      0.308671
    3   C      3    2.1250  1.000     -2.651383      3.183906      0.217626
    4   C      4    2.1250  1.000     -3.549312      2.334815     -0.405703
    5   C      5    2.1250  1.000     -3.061849      1.176631     -1.016336
    6   C      6    2.1250  1.000     -1.718849      0.842839     -0.947911
    7   C      7    1.9250  1.000     -0.802015      1.653630     -0.252590
    8   C      8    1.9250  1.000      1.146327      0.063760     -0.146615
    9   C      9    2.1250  1.000      2.551711      0.063760     -0.146615
   10   C     10    2.1250  1.000      3.267275     -1.125267     -0.146615
   11   C     11    2.1250  1.000      2.607958     -2.350920     -0.134692
   12   C     12    1.9250  1.000      1.215090     -2.353662     -0.094738
   13   C     13    2.1250  1.000      0.481873     -1.171059     -0.089990
   14   C     14    1.9250  1.000      0.504139     -3.676989     -0.060490
   15   F     15    1.6820  1.000      0.698266     -4.374778     -1.200674
   16   F     16    1.6820  1.000     -0.825951     -3.551142      0.098238
   17   F     17    1.6820  1.000      0.950042     -4.459338      0.943514
   18   N     18    1.9300  1.000      0.515368      1.299545     -0.077539
   19   O     19    1.8500  1.000     -0.948013      5.037371      1.183801
   20   O     20    1.7500  1.000      0.871773      3.808728      0.787317
 ------------------------------------------------------------------------------
 GePol: Number of generator spheres                  =      20
 GePol: Total number of spheres                      =     166
 GePol: Number of exposed spheres                    =     145 ( 87.35%)
 GePol: Number of tesserae                           =    2790
 GePol: Average area of tesserae                     =       0.10 Ang**2
 GePol: Minimum area of tessera                      =   0.10D-02 Ang**2
 GePol: Maximum area of tessera                      =    0.30017 Ang**2
 GePol: Number of small tesserae                     =       0
 GePol: Fraction of small tesserae (<1% of avg)      =       0.00%
 GePol: Total count of vertices                      =   10443
 GePol: Maximum number of vertices in a tessera      =       8
 GePol: Cavity surface area                          =    278.825 Ang**2
 GePol: Cavity volume                                =    301.681 Ang**3
 Leave Link  301 at Fri Sep 29 15:54:08 2017, MaxMem=   196608000 cpu:         0.2
 (Enter /usr/local/g09_d01/l302.exe)
 NPDir=0 NMtPBC=     1 NCelOv=     1 NCel=       1 NClECP=     1 NCelD=      1
         NCelK=      1 NCelE2=     1 NClLst=     1 CellRange=     0.0.
 One-electron integrals computed using PRISM.
 NBasis=   400 RedAO= T EigKep=  1.16D-06  NBF=   400
 NBsUse=   399 1.00D-06 EigRej=  6.90D-07 NBFU=   399
 Precomputing XC quadrature grid using
 IXCGrd= 4 IRadAn=           0 IRanWt=          -1 IRanGd=           0 AccXCQ= 0.00D+00.
 Generated NRdTot=       0 NPtTot=           0 NUsed=           0 NTot=          32
 NSgBfM=   396   396   396   396   397 MxSgAt=    30 MxSgA2=    30.
 Leave Link  302 at Fri Sep 29 15:54:09 2017, MaxMem=   196608000 cpu:         0.9
 (Enter /usr/local/g09_d01/l303.exe)
 DipDrv:  MaxL=1.
 Leave Link  303 at Fri Sep 29 15:54:09 2017, MaxMem=   196608000 cpu:         0.0
 (Enter /usr/local/g09_d01/l401.exe)
 ExpMin= 4.38D-02 ExpMax= 7.00D+03 ExpMxC= 1.05D+03 IAcc=2 IRadAn=         4 AccDes= 0.00D+00
 Harris functional with IExCor= 1009 and IRadAn=       4 diagonalized for initial guess.
 HarFok:  IExCor= 1009 AccDes= 0.00D+00 IRadAn=         4 IDoV= 1 UseB2=F ITyADJ=14
 ICtDFT=  3500011 ScaDFX=  1.000000  1.000000  1.000000  1.000000
 FoFCou: FMM=F IPFlag=           0 FMFlag=      100000 FMFlg1=           0
         NFxFlg=           0 DoJE=T BraDBF=F KetDBF=T FulRan=T
         wScrn=  0.000000 ICntrl=     500 IOpCl=  0 I1Cent=   200000004 NGrid=           0
         NMat0=    1 NMatS0=      1 NMatT0=    0 NMatD0=    1 NMtDS0=    0 NMtDT0=    0
 Symmetry not used in FoFCou.
 Harris En= -1043.33990928128    
 JPrj=0 DoOrth=F DoCkMO=F.
 Leave Link  401 at Fri Sep 29 15:54:19 2017, MaxMem=   196608000 cpu:         9.6
 (Enter /usr/local/g09_d01/l502.exe)
 Closed shell SCF:
 Using DIIS extrapolation, IDIIS=  1040.
 Two-electron integral symmetry not used.
 IVT=      503410 IEndB=      503410 NGot=   196608000 MDV=   196281631
 LenX=   196281631 LenY=   196121190
 Requested convergence on RMS density matrix=1.00D-08 within 128 cycles.
 Requested convergence on MAX density matrix=1.00D-06.
 Requested convergence on             energy=1.00D-06.
 No special actions if energy rises.
 Fock matrices will be formed incrementally for  20 cycles.

 Cycle   1  Pass 1  IDiag  1:
 FoFJK:  IHMeth= 1 ICntrl=       0 DoSepK=F KAlg= 0 I1Cent=   0 FoldK=F
 IRaf= 810000000 NMat=   1 IRICut=       1 DoRegI=T DoRafI=F ISym2E= 0.
 FoFCou: FMM=F IPFlag=           0 FMFlag=      100000 FMFlg1=           0
         NFxFlg=           0 DoJE=F BraDBF=F KetDBF=F FulRan=T
         wScrn=  0.000000 ICntrl=       0 IOpCl=  0 I1Cent=           0 NGrid=           0
         NMat0=    1 NMatS0=      1 NMatT0=    0 NMatD0=    1 NMtDS0=    0 NMtDT0=    0
 Symmetry not used in FoFCou.
 Inv3:  Mode=1 IEnd=    23352300.
 Iteration    1 A*A^-1 deviation from unit magnitude is 6.00D-15 for   2786.
 Iteration    1 A*A^-1 deviation from orthogonality  is 2.62D-15 for   2771   2755.
 Iteration    1 A^-1*A deviation from unit magnitude is 6.44D-15 for   2767.
 Iteration    1 A^-1*A deviation from orthogonality  is 3.13D-15 for   2786   2777.
 E= -1042.85602164640    
 DIIS: error= 1.66D-02 at cycle   1 NSaved=   1.
 NSaved= 1 IEnMin= 1 EnMin= -1042.85602164640     IErMin= 1 ErrMin= 1.66D-02
 ErrMax= 1.66D-02  0.00D+00 EMaxC= 1.00D-01 BMatC= 3.99D-01 BMatP= 3.99D-01
 IDIUse=3 WtCom= 8.34D-01 WtEn= 1.66D-01
 Coeff-Com:  0.100D+01
 Coeff-En:   0.100D+01
 Coeff:      0.100D+01
 Gap=     0.162 Goal=   None    Shift=    0.000
 GapD=    0.162 DampG=1.000 DampE=0.500 DampFc=0.5000 IDamp=-1.
 Damping current iteration by 5.00D-01
 RMSDP=3.65D-02 MaxDP=1.98D+00              OVMax= 2.12D-01

 Cycle   2  Pass 1  IDiag  1:
 RMSU=  1.52D-02    CP:  9.09D-01
 E= -1042.99823831020     Delta-E=       -0.142216663802 Rises=F Damp=T
 DIIS: error= 7.16D-03 at cycle   2 NSaved=   2.
 NSaved= 2 IEnMin= 2 EnMin= -1042.99823831020     IErMin= 2 ErrMin= 7.16D-03
 ErrMax= 7.16D-03  0.00D+00 EMaxC= 1.00D-01 BMatC= 3.64D-02 BMatP= 3.99D-01
 IDIUse=3 WtCom= 9.28D-01 WtEn= 7.16D-02
 Coeff-Com:  0.913D-01 0.909D+00
 Coeff-En:   0.172D+00 0.828D+00
 Coeff:      0.971D-01 0.903D+00
 Gap=     0.161 Goal=   None    Shift=    0.000
 RMSDP=2.70D-02 MaxDP=1.99D+00 DE=-1.42D-01 OVMax= 1.44D-01

 Cycle   3  Pass 1  IDiag  1:
 RMSU=  9.42D-03    CP:  6.84D-01  6.15D-01
 E= -1043.18291681439     Delta-E=       -0.184678504191 Rises=F Damp=F
 DIIS: error= 5.26D-03 at cycle   3 NSaved=   3.
 NSaved= 3 IEnMin= 3 EnMin= -1043.18291681439     IErMin= 3 ErrMin= 5.26D-03
 ErrMax= 5.26D-03  0.00D+00 EMaxC= 1.00D-01 BMatC= 2.51D-02 BMatP= 3.64D-02
 IDIUse=3 WtCom= 9.47D-01 WtEn= 5.26D-02
 Coeff-Com: -0.259D-01 0.447D+00 0.579D+00
 Coeff-En:   0.000D+00 0.000D+00 0.100D+01
 Coeff:     -0.245D-01 0.423D+00 0.601D+00
 Gap=     0.163 Goal=   None    Shift=    0.000
 RMSDP=5.69D-03 MaxDP=5.68D-01 DE=-1.85D-01 OVMax= 5.86D-02

 Cycle   4  Pass 1  IDiag  1:
 RMSU=  4.44D-03    CP:  7.13D-01  5.72D-01  8.39D-01
 E= -1043.19958842627     Delta-E=       -0.016671611877 Rises=F Damp=F
 DIIS: error= 2.48D-03 at cycle   4 NSaved=   4.
 NSaved= 4 IEnMin= 4 EnMin= -1043.19958842627     IErMin= 4 ErrMin= 2.48D-03
 ErrMax= 2.48D-03  0.00D+00 EMaxC= 1.00D-01 BMatC= 6.64D-03 BMatP= 2.51D-02
 IDIUse=3 WtCom= 9.75D-01 WtEn= 2.48D-02
 Coeff-Com: -0.261D-01 0.103D+00 0.368D+00 0.555D+00
 Coeff-En:   0.000D+00 0.000D+00 0.233D+00 0.767D+00
 Coeff:     -0.254D-01 0.100D+00 0.365D+00 0.561D+00
 Gap=     0.157 Goal=   None    Shift=    0.000
 RMSDP=2.93D-03 MaxDP=2.45D-01 DE=-1.67D-02 OVMax= 1.94D-02

 Cycle   5  Pass 1  IDiag  1:
 RMSU=  1.48D-03    CP:  7.02D-01  6.05D-01  8.51D-01  5.11D-01
 E= -1043.20531887500     Delta-E=       -0.005730448733 Rises=F Damp=F
 DIIS: error= 6.50D-04 at cycle   5 NSaved=   5.
 NSaved= 5 IEnMin= 5 EnMin= -1043.20531887500     IErMin= 5 ErrMin= 6.50D-04
 ErrMax= 6.50D-04  0.00D+00 EMaxC= 1.00D-01 BMatC= 3.71D-04 BMatP= 6.64D-03
 IDIUse=3 WtCom= 9.93D-01 WtEn= 6.50D-03
 Coeff-Com: -0.123D-01 0.291D-01 0.162D+00 0.303D+00 0.518D+00
 Coeff-En:   0.000D+00 0.000D+00 0.000D+00 0.000D+00 0.100D+01
 Coeff:     -0.122D-01 0.289D-01 0.160D+00 0.301D+00 0.521D+00
 Gap=     0.158 Goal=   None    Shift=    0.000
 RMSDP=8.28D-04 MaxDP=6.50D-02 DE=-5.73D-03 OVMax= 4.68D-03

 Cycle   6  Pass 1  IDiag  1:
 RMSU=  5.31D-04    CP:  6.97D-01  6.09D-01  8.51D-01  5.37D-01  7.97D-01
 E= -1043.20559636838     Delta-E=       -0.000277493381 Rises=F Damp=F
 DIIS: error= 1.83D-04 at cycle   6 NSaved=   6.
 NSaved= 6 IEnMin= 6 EnMin= -1043.20559636838     IErMin= 6 ErrMin= 1.83D-04
 ErrMax= 1.83D-04  0.00D+00 EMaxC= 1.00D-01 BMatC= 2.82D-05 BMatP= 3.71D-04
 IDIUse=3 WtCom= 9.98D-01 WtEn= 1.83D-03
 Coeff-Com: -0.456D-02 0.797D-02 0.540D-01 0.110D+00 0.276D+00 0.557D+00
 Coeff-En:   0.000D+00 0.000D+00 0.000D+00 0.000D+00 0.000D+00 0.100D+01
 Coeff:     -0.456D-02 0.795D-02 0.539D-01 0.110D+00 0.275D+00 0.557D+00
 Gap=     0.158 Goal=   None    Shift=    0.000
 RMSDP=1.82D-04 MaxDP=1.31D-02 DE=-2.77D-04 OVMax= 1.30D-03

 Cycle   7  Pass 1  IDiag  1:
 RMSU=  7.24D-05    CP:  6.98D-01  6.08D-01  8.54D-01  5.41D-01  7.59D-01
                    CP:  7.59D-01
 E= -1043.20561749581     Delta-E=       -0.000021127426 Rises=F Damp=F
 DIIS: error= 4.04D-05 at cycle   7 NSaved=   7.
 NSaved= 7 IEnMin= 7 EnMin= -1043.20561749581     IErMin= 7 ErrMin= 4.04D-05
 ErrMax= 4.04D-05  0.00D+00 EMaxC= 1.00D-01 BMatC= 2.31D-06 BMatP= 2.82D-05
 IDIUse=1 WtCom= 1.00D+00 WtEn= 0.00D+00
 Coeff-Com: -0.183D-02 0.259D-02 0.197D-01 0.416D-01 0.120D+00 0.309D+00
 Coeff-Com:  0.509D+00
 Coeff:     -0.183D-02 0.259D-02 0.197D-01 0.416D-01 0.120D+00 0.309D+00
 Coeff:      0.509D+00
 Gap=     0.158 Goal=   None    Shift=    0.000
 RMSDP=3.84D-05 MaxDP=2.53D-03 DE=-2.11D-05 OVMax= 4.94D-04

 Cycle   8  Pass 1  IDiag  1:
 RMSU=  2.38D-05    CP:  6.98D-01  6.07D-01  8.55D-01  5.42D-01  7.55D-01
                    CP:  7.58D-01  8.62D-01
 E= -1043.20561952288     Delta-E=       -0.000002027071 Rises=F Damp=F
 DIIS: error= 1.33D-05 at cycle   8 NSaved=   8.
 NSaved= 8 IEnMin= 8 EnMin= -1043.20561952288     IErMin= 8 ErrMin= 1.33D-05
 ErrMax= 1.33D-05  0.00D+00 EMaxC= 1.00D-01 BMatC= 1.78D-07 BMatP= 2.31D-06
 IDIUse=1 WtCom= 1.00D+00 WtEn= 0.00D+00
 Coeff-Com: -0.309D-03 0.231D-03 0.234D-02 0.533D-02 0.233D-01 0.811D-01
 Coeff-Com:  0.247D+00 0.641D+00
 Coeff:     -0.309D-03 0.231D-03 0.234D-02 0.533D-02 0.233D-01 0.811D-01
 Coeff:      0.247D+00 0.641D+00
 Gap=     0.158 Goal=   None    Shift=    0.000
 RMSDP=1.24D-05 MaxDP=8.24D-04 DE=-2.03D-06 OVMax= 1.90D-04

 Cycle   9  Pass 1  IDiag  1:
 RMSU=  9.35D-06    CP:  6.98D-01  6.07D-01  8.55D-01  5.43D-01  7.56D-01
                    CP:  7.62D-01  9.05D-01  8.46D-01
 E= -1043.20561966872     Delta-E=       -0.000000145841 Rises=F Damp=F
 DIIS: error= 5.85D-06 at cycle   9 NSaved=   9.
 NSaved= 9 IEnMin= 9 EnMin= -1043.20561966872     IErMin= 9 ErrMin= 5.85D-06
 ErrMax= 5.85D-06  0.00D+00 EMaxC= 1.00D-01 BMatC= 3.05D-08 BMatP= 1.78D-07
 IDIUse=1 WtCom= 1.00D+00 WtEn= 0.00D+00
 Coeff-Com:  0.572D-04-0.179D-03-0.115D-02-0.245D-02-0.273D-02 0.466D-02
 Coeff-Com:  0.631D-01 0.346D+00 0.593D+00
 Coeff:      0.572D-04-0.179D-03-0.115D-02-0.245D-02-0.273D-02 0.466D-02
 Coeff:      0.631D-01 0.346D+00 0.593D+00
 Gap=     0.158 Goal=   None    Shift=    0.000
 RMSDP=7.73D-06 MaxDP=4.43D-04 DE=-1.46D-07 OVMax= 6.31D-05

 Cycle  10  Pass 1  IDiag  1:
 RMSU=  2.80D-06    CP:  6.98D-01  6.07D-01  8.55D-01  5.42D-01  7.58D-01
                    CP:  7.67D-01  9.10D-01  9.16D-01  7.96D-01
 E= -1043.20561969831     Delta-E=       -0.000000029591 Rises=F Damp=F
 DIIS: error= 2.59D-06 at cycle  10 NSaved=  10.
 NSaved=10 IEnMin=10 EnMin= -1043.20561969831     IErMin=10 ErrMin= 2.59D-06
 ErrMax= 2.59D-06  0.00D+00 EMaxC= 1.00D-01 BMatC= 2.86D-09 BMatP= 3.05D-08
 IDIUse=1 WtCom= 1.00D+00 WtEn= 0.00D+00
 Coeff-Com:  0.506D-04-0.107D-03-0.737D-03-0.166D-02-0.298D-02-0.262D-02
 Coeff-Com:  0.164D-01 0.138D+00 0.318D+00 0.535D+00
 Coeff:      0.506D-04-0.107D-03-0.737D-03-0.166D-02-0.298D-02-0.262D-02
 Coeff:      0.164D-01 0.138D+00 0.318D+00 0.535D+00
 Gap=     0.158 Goal=   None    Shift=    0.000
 RMSDP=1.85D-06 MaxDP=1.26D-04 DE=-2.96D-08 OVMax= 2.37D-05

 Cycle  11  Pass 1  IDiag  1:
 RMSU=  1.42D-06    CP:  6.98D-01  6.07D-01  8.55D-01  5.42D-01  7.57D-01
                    CP:  7.69D-01  9.13D-01  9.05D-01  8.19D-01  7.61D-01
 E= -1043.20561970123     Delta-E=       -0.000000002926 Rises=F Damp=F
 DIIS: error= 5.49D-07 at cycle  11 NSaved=  11.
 NSaved=11 IEnMin=11 EnMin= -1043.20561970123     IErMin=11 ErrMin= 5.49D-07
 ErrMax= 5.49D-07  0.00D+00 EMaxC= 1.00D-01 BMatC= 2.82D-10 BMatP= 2.86D-09
 IDIUse=1 WtCom= 1.00D+00 WtEn= 0.00D+00
 Coeff-Com:  0.164D-04-0.255D-04-0.171D-03-0.431D-03-0.104D-02-0.203D-02
 Coeff-Com: -0.276D-02 0.854D-02 0.558D-01 0.265D+00 0.677D+00
 Coeff:      0.164D-04-0.255D-04-0.171D-03-0.431D-03-0.104D-02-0.203D-02
 Coeff:     -0.276D-02 0.854D-02 0.558D-01 0.265D+00 0.677D+00
 Gap=     0.158 Goal=   None    Shift=    0.000
 RMSDP=5.46D-07 MaxDP=3.47D-05 DE=-2.93D-09 OVMax= 9.24D-06

 Cycle  12  Pass 1  IDiag  1:
 RMSU=  2.94D-07    CP:  6.98D-01  6.07D-01  8.55D-01  5.42D-01  7.57D-01
                    CP:  7.69D-01  9.14D-01  9.12D-01  8.32D-01  8.54D-01
                    CP:  8.30D-01
 E= -1043.20561970158     Delta-E=       -0.000000000348 Rises=F Damp=F
 DIIS: error= 2.03D-07 at cycle  12 NSaved=  12.
 NSaved=12 IEnMin=12 EnMin= -1043.20561970158     IErMin=12 ErrMin= 2.03D-07
 ErrMax= 2.03D-07  0.00D+00 EMaxC= 1.00D-01 BMatC= 1.73D-11 BMatP= 2.82D-10
 IDIUse=1 WtCom= 1.00D+00 WtEn= 0.00D+00
 Coeff-Com:  0.316D-05-0.295D-05-0.128D-04-0.494D-04-0.209D-03-0.607D-03
 Coeff-Com: -0.225D-02-0.723D-02-0.169D-02 0.655D-01 0.272D+00 0.674D+00
 Coeff:      0.316D-05-0.295D-05-0.128D-04-0.494D-04-0.209D-03-0.607D-03
 Coeff:     -0.225D-02-0.723D-02-0.169D-02 0.655D-01 0.272D+00 0.674D+00
 Gap=     0.158 Goal=   None    Shift=    0.000
 RMSDP=1.88D-07 MaxDP=1.37D-05 DE=-3.48D-10 OVMax= 1.92D-06

 Cycle  13  Pass 1  IDiag  1:
 RMSU=  1.02D-07    CP:  6.98D-01  6.07D-01  8.55D-01  5.42D-01  7.57D-01
                    CP:  7.69D-01  9.14D-01  9.12D-01  8.32D-01  8.67D-01
                    CP:  9.04D-01  1.02D+00
 E= -1043.20561970165     Delta-E=       -0.000000000066 Rises=F Damp=F
 DIIS: error= 7.30D-08 at cycle  13 NSaved=  13.
 NSaved=13 IEnMin=13 EnMin= -1043.20561970165     IErMin=13 ErrMin= 7.30D-08
 ErrMax= 7.30D-08  0.00D+00 EMaxC= 1.00D-01 BMatC= 2.48D-12 BMatP= 1.73D-11
 IDIUse=1 WtCom= 1.00D+00 WtEn= 0.00D+00
 Coeff-Com: -0.713D-06 0.191D-05 0.175D-04 0.382D-04 0.428D-04 0.582D-05
 Coeff-Com: -0.553D-03-0.454D-02-0.858D-02-0.991D-02 0.248D-01 0.289D+00
 Coeff-Com:  0.709D+00
 Coeff:     -0.713D-06 0.191D-05 0.175D-04 0.382D-04 0.428D-04 0.582D-05
 Coeff:     -0.553D-03-0.454D-02-0.858D-02-0.991D-02 0.248D-01 0.289D+00
 Coeff:      0.709D+00
 Gap=     0.158 Goal=   None    Shift=    0.000
 RMSDP=6.85D-08 MaxDP=4.44D-06 DE=-6.59D-11 OVMax= 1.01D-06

 Cycle  14  Pass 1  IDiag  1:
 RMSU=  3.22D-08    CP:  6.98D-01  6.07D-01  8.55D-01  5.42D-01  7.57D-01
                    CP:  7.69D-01  9.14D-01  9.11D-01  8.34D-01  8.72D-01
                    CP:  9.19D-01  1.11D+00  1.10D+00
 E= -1043.20561970158     Delta-E=        0.000000000065 Rises=F Damp=F
 DIIS: error= 2.10D-08 at cycle  14 NSaved=  14.
 NSaved=14 IEnMin=13 EnMin= -1043.20561970165     IErMin=14 ErrMin= 2.10D-08
 ErrMax= 2.10D-08  0.00D+00 EMaxC= 1.00D-01 BMatC= 3.44D-13 BMatP= 2.48D-12
 IDIUse=1 WtCom= 1.00D+00 WtEn= 0.00D+00
 Coeff-Com: -0.595D-06 0.120D-05 0.962D-05 0.230D-04 0.368D-04 0.523D-04
 Coeff-Com: -0.650D-04-0.161D-02-0.389D-02-0.100D-01-0.936D-02 0.760D-01
 Coeff-Com:  0.349D+00 0.600D+00
 Coeff:     -0.595D-06 0.120D-05 0.962D-05 0.230D-04 0.368D-04 0.523D-04
 Coeff:     -0.650D-04-0.161D-02-0.389D-02-0.100D-01-0.936D-02 0.760D-01
 Coeff:      0.349D+00 0.600D+00
 Gap=     0.158 Goal=   None    Shift=    0.000
 RMSDP=1.49D-08 MaxDP=1.06D-06 DE= 6.55D-11 OVMax= 3.34D-07

 Cycle  15  Pass 1  IDiag  1:
 RMSU=  9.49D-09    CP:  6.98D-01  6.07D-01  8.55D-01  5.42D-01  7.57D-01
                    CP:  7.69D-01  9.14D-01  9.11D-01  8.34D-01  8.72D-01
                    CP:  9.22D-01  1.12D+00  1.12D+00  8.97D-01
 E= -1043.20561970156     Delta-E=        0.000000000024 Rises=F Damp=F
 DIIS: error= 4.05D-09 at cycle  15 NSaved=  15.
 NSaved=15 IEnMin=13 EnMin= -1043.20561970165     IErMin=15 ErrMin= 4.05D-09
 ErrMax= 4.05D-09  0.00D+00 EMaxC= 1.00D-01 BMatC= 2.06D-14 BMatP= 3.44D-13
 IDIUse=1 WtCom= 1.00D+00 WtEn= 0.00D+00
 Coeff-Com: -0.117D-06 0.162D-06 0.107D-05 0.342D-05 0.705D-05 0.150D-04
 Coeff-Com:  0.535D-04-0.134D-04-0.290D-03-0.262D-02-0.648D-02-0.128D-01
 Coeff-Com:  0.354D-01 0.213D+00 0.774D+00
 Coeff:     -0.117D-06 0.162D-06 0.107D-05 0.342D-05 0.705D-05 0.150D-04
 Coeff:      0.535D-04-0.134D-04-0.290D-03-0.262D-02-0.648D-02-0.128D-01
 Coeff:      0.354D-01 0.213D+00 0.774D+00
 Gap=     0.158 Goal=   None    Shift=    0.000
 RMSDP=1.02D-08 MaxDP=7.44D-07 DE= 2.41D-11 OVMax= 1.02D-07

 Cycle  16  Pass 1  IDiag  1:
 RMSU=  3.63D-09    CP:  6.98D-01  6.07D-01  8.55D-01  5.42D-01  7.57D-01
                    CP:  7.69D-01  9.14D-01  9.11D-01  8.34D-01  8.73D-01
                    CP:  9.24D-01  1.13D+00  1.16D+00  9.80D-01  9.83D-01
 E= -1043.20561970155     Delta-E=        0.000000000010 Rises=F Damp=F
 DIIS: error= 1.61D-09 at cycle  16 NSaved=  16.
 NSaved=16 IEnMin=13 EnMin= -1043.20561970165     IErMin=16 ErrMin= 1.61D-09
 ErrMax= 1.61D-09  0.00D+00 EMaxC= 1.00D-01 BMatC= 3.75D-15 BMatP= 2.06D-14
 IDIUse=1 WtCom= 1.00D+00 WtEn= 0.00D+00
 Coeff-Com: -0.945D-08-0.192D-07-0.258D-06-0.173D-06 0.520D-06 0.350D-05
 Coeff-Com:  0.368D-04 0.135D-03 0.219D-03-0.406D-03-0.196D-02-0.117D-01
 Coeff-Com: -0.755D-02 0.640D-01 0.395D+00 0.562D+00
 Coeff:     -0.945D-08-0.192D-07-0.258D-06-0.173D-06 0.520D-06 0.350D-05
 Coeff:      0.368D-04 0.135D-03 0.219D-03-0.406D-03-0.196D-02-0.117D-01
 Coeff:     -0.755D-02 0.640D-01 0.395D+00 0.562D+00
 Gap=     0.158 Goal=   None    Shift=    0.000
 RMSDP=1.83D-09 MaxDP=1.14D-07 DE= 9.55D-12 OVMax= 3.18D-08

 Error on total polarization charges =  0.01978
 SCF Done:  E(RPBE1PBE) =  -1043.20561970     A.U. after   16 cycles
            NFock= 16  Conv=0.18D-08     -V/T= 2.0081
 KE= 1.034790896445D+03 PE=-5.438412636809D+03 EE= 1.862787189883D+03
 --------------------------------------------------------------------
 Variational PCM results
 =======================
 <psi(f)|   H    |psi(f)>                     (a.u.) =   -1043.192653
 <psi(f)|H+V(f)/2|psi(f)>                     (a.u.) =   -1043.205620
 Total free energy in solution:
 - with all non electrostatic terms           (a.u.) =   -1043.188106
 --------------------------------------------------------------------
 (Polarized solute)-Solvent               (kcal/mol) =      -8.14
 --------------------------------------------------------------------
 Cavitation energy                        (kcal/mol) =      34.16
 Dispersion energy                        (kcal/mol) =     -25.17
 Repulsion energy                         (kcal/mol) =       2.00
 Total non electrostatic                  (kcal/mol) =      10.99
 --------------------------------------------------------------------
 Partition over spheres:
 Sphere  on Atom  Surface  Charge   GEl     GCav    GDR
    1      C1       4.66  -0.014   -0.05    0.86   -0.53
    2      C2       2.30   0.002   -0.01    0.51   -0.25
    3      C3      14.20  -0.008   -0.25    2.18   -1.53
    4      C4      18.16  -0.013   -0.41    2.38   -1.84
    5      C5      17.83  -0.023   -0.46    2.35   -1.84
    6      C6      10.39  -0.005   -0.18    1.97   -1.13
    7      C7       1.98  -0.001    0.00    0.47   -0.21
    8      C8       1.17   0.000    0.00    0.33   -0.10
    9      C9      15.86  -0.018   -0.42    2.42   -1.78
   10      C10     17.88  -0.022   -0.46    2.35   -1.85
   11      C11     13.78  -0.020   -0.38    2.30   -1.54
   12      C12      0.85   0.000    0.00    0.30   -0.02
   13      C13      8.81   0.006   -0.04    1.93   -1.03
   14      C14      0.15  -0.001    0.00    0.21    0.00
   15      F15     15.35   0.037   -0.26    2.44   -1.73
   16      F16     13.39   0.028   -0.16    2.28   -1.52
   17      F17     14.93   0.034   -0.25    2.40   -1.71
   18      N18      4.82   0.007   -0.02    1.22   -0.56
   19      O19     20.52  -0.069   -3.52    2.91   -2.31
   20      O20     14.56   0.094   -0.73    2.37   -1.70
 Added spheres:    67.22  -0.033   -0.55    0.00    0.00
 --------------------------------------------------------------------
 - cavitation energy not included in the total energy.
 - dispersion energy not included in the total energy.
 - repulsion  energy not included in the total energy.
 After PCM corrections, the energy is  -1043.20561970     a.u.
 --------------------------------------------------------------------
 Leave Link  502 at Fri Sep 29 16:08:47 2017, MaxMem=   196608000 cpu:       868.0
 (Enter /usr/local/g09_d01/l601.exe)
 Copying SCF densities to generalized density rwf, IOpCl= 0 IROHF=0.

 **********************************************************************

            Population analysis using the SCF density.

 **********************************************************************

 Alpha  occ. eigenvalues --  -24.83867 -24.83451 -24.83380 -19.28656 -19.23897
 Alpha  occ. eigenvalues --  -14.44291 -10.49626 -10.38944 -10.31264 -10.30579
 Alpha  occ. eigenvalues --  -10.27621 -10.26815 -10.26097 -10.26075 -10.26033
 Alpha  occ. eigenvalues --  -10.25808 -10.25584 -10.25548 -10.25242 -10.24688
 Alpha  occ. eigenvalues --   -1.35897  -1.27052  -1.26591  -1.15480  -1.06205
 Alpha  occ. eigenvalues --   -1.00240  -0.91025  -0.88941  -0.82240  -0.80945
 Alpha  occ. eigenvalues --   -0.79485  -0.76696  -0.73379  -0.69788  -0.66911
 Alpha  occ. eigenvalues --   -0.66352  -0.64079  -0.62554  -0.61924  -0.60977
 Alpha  occ. eigenvalues --   -0.59668  -0.56282  -0.54615  -0.53013  -0.52499
 Alpha  occ. eigenvalues --   -0.51647  -0.49868  -0.49598  -0.48923  -0.48617
 Alpha  occ. eigenvalues --   -0.47588  -0.47437  -0.46216  -0.45777  -0.45260
 Alpha  occ. eigenvalues --   -0.44314  -0.43500  -0.43358  -0.42710  -0.42135
 Alpha  occ. eigenvalues --   -0.40041  -0.39730  -0.39032  -0.37802  -0.37145
 Alpha  occ. eigenvalues --   -0.35562  -0.34929  -0.31158  -0.28738  -0.28453
 Alpha  occ. eigenvalues --   -0.28375  -0.21940
 Alpha virt. eigenvalues --   -0.06147  -0.03328  -0.02634   0.00850   0.01133
 Alpha virt. eigenvalues --    0.01963   0.02372   0.03577   0.03725   0.04180
 Alpha virt. eigenvalues --    0.04489   0.04901   0.05604   0.05639   0.05997
 Alpha virt. eigenvalues --    0.06646   0.07300   0.07893   0.08096   0.08822
 Alpha virt. eigenvalues --    0.09193   0.09625   0.10769   0.10893   0.11441
 Alpha virt. eigenvalues --    0.12020   0.12390   0.12697   0.12908   0.13100
 Alpha virt. eigenvalues --    0.13440   0.14080   0.14293   0.14966   0.15125
 Alpha virt. eigenvalues --    0.15452   0.16346   0.16783   0.17197   0.17565
 Alpha virt. eigenvalues --    0.17865   0.18326   0.18712   0.19226   0.19438
 Alpha virt. eigenvalues --    0.19884   0.20121   0.20381   0.20713   0.21224
 Alpha virt. eigenvalues --    0.21528   0.22101   0.22213   0.22267   0.22758
 Alpha virt. eigenvalues --    0.23328   0.23605   0.24155   0.24378   0.25049
 Alpha virt. eigenvalues --    0.25202   0.25312   0.25676   0.26011   0.26322
 Alpha virt. eigenvalues --    0.26476   0.26659   0.27031   0.27587   0.28040
 Alpha virt. eigenvalues --    0.28293   0.28763   0.29312   0.29411   0.29898
 Alpha virt. eigenvalues --    0.30102   0.30587   0.31005   0.31253   0.31681
 Alpha virt. eigenvalues --    0.32147   0.32313   0.32892   0.33410   0.34537
 Alpha virt. eigenvalues --    0.34597   0.35063   0.35237   0.35820   0.36408
 Alpha virt. eigenvalues --    0.36679   0.37520   0.37985   0.38717   0.38846
 Alpha virt. eigenvalues --    0.39484   0.40369   0.41163   0.41383   0.42658
 Alpha virt. eigenvalues --    0.42996   0.43733   0.44752   0.45138   0.45517
 Alpha virt. eigenvalues --    0.45892   0.47372   0.48120   0.49308   0.49468
 Alpha virt. eigenvalues --    0.50188   0.52286   0.54623   0.59671   0.61310
 Alpha virt. eigenvalues --    0.62353   0.63492   0.67760   0.69002   0.69617
 Alpha virt. eigenvalues --    0.69897   0.70340   0.71831   0.73578   0.74056
 Alpha virt. eigenvalues --    0.75158   0.75696   0.76026   0.76636   0.77182
 Alpha virt. eigenvalues --    0.78280   0.78488   0.78888   0.79870   0.80846
 Alpha virt. eigenvalues --    0.81846   0.82810   0.83194   0.84110   0.85598
 Alpha virt. eigenvalues --    0.86268   0.87875   0.88109   0.88624   0.90345
 Alpha virt. eigenvalues --    0.92491   0.93363   0.94080   0.94932   0.96552
 Alpha virt. eigenvalues --    0.98184   0.99711   1.00410   1.02126   1.02948
 Alpha virt. eigenvalues --    1.04201   1.05740   1.07577   1.08663   1.10337
 Alpha virt. eigenvalues --    1.11185   1.13036   1.13441   1.14440   1.16177
 Alpha virt. eigenvalues --    1.17020   1.18041   1.18354   1.18860   1.19775
 Alpha virt. eigenvalues --    1.20227   1.21207   1.23076   1.23892   1.24543
 Alpha virt. eigenvalues --    1.25456   1.26550   1.27332   1.28637   1.29869
 Alpha virt. eigenvalues --    1.30580   1.31336   1.32119   1.35744   1.36623
 Alpha virt. eigenvalues --    1.38454   1.39639   1.41418   1.42514   1.42622
 Alpha virt. eigenvalues --    1.43238   1.44856   1.45825   1.46579   1.47163
 Alpha virt. eigenvalues --    1.47538   1.48503   1.49121   1.51006   1.51347
 Alpha virt. eigenvalues --    1.52668   1.55681   1.60104   1.61234   1.62873
 Alpha virt. eigenvalues --    1.63801   1.65112   1.66646   1.68949   1.69231
 Alpha virt. eigenvalues --    1.69830   1.69915   1.70426   1.71859   1.72818
 Alpha virt. eigenvalues --    1.74067   1.75390   1.78514   1.79186   1.79602
 Alpha virt. eigenvalues --    1.80848   1.82683   1.83606   1.84595   1.84827
 Alpha virt. eigenvalues --    1.85168   1.86326   1.87271   1.87732   1.88606
 Alpha virt. eigenvalues --    1.89479   1.91945   1.92568   1.94351   1.94805
 Alpha virt. eigenvalues --    1.97321   1.97821   1.98728   2.00622   2.01780
 Alpha virt. eigenvalues --    2.02845   2.03986   2.05151   2.05941   2.06928
 Alpha virt. eigenvalues --    2.08167   2.08349   2.09121   2.09879   2.10837
 Alpha virt. eigenvalues --    2.12593   2.14593   2.15715   2.17806   2.18343
 Alpha virt. eigenvalues --    2.19226   2.21152   2.22439   2.24746   2.25728
 Alpha virt. eigenvalues --    2.27396   2.28357   2.29317   2.30475   2.31473
 Alpha virt. eigenvalues --    2.33901   2.36636   2.37755   2.42749   2.44375
 Alpha virt. eigenvalues --    2.47588   2.48736   2.49664   2.50987   2.54672
 Alpha virt. eigenvalues --    2.60710   2.62534   2.63692   2.64447   2.65832
 Alpha virt. eigenvalues --    2.67139   2.68524   2.69647   2.71869   2.73826
 Alpha virt. eigenvalues --    2.75430   2.76399   2.76810   2.77236   2.82028
 Alpha virt. eigenvalues --    2.82399   2.87425   2.89068   2.92788   2.96531
 Alpha virt. eigenvalues --    2.98943   3.00166   3.08168   3.12020   3.15622
 Alpha virt. eigenvalues --    3.16681   3.22017   3.25452   3.29319   3.33613
 Alpha virt. eigenvalues --    3.45237   3.46368   4.18252   4.27761   4.30790
 Alpha virt. eigenvalues --    4.31926   4.33534   4.37485   4.38351   4.40748
 Alpha virt. eigenvalues --    4.42364   4.44034   4.50885   4.51336   4.53174
 Alpha virt. eigenvalues --    4.61552   4.73857   4.78093   4.83825   5.59021
 Alpha virt. eigenvalues --    6.13765   6.92845
          Condensed to atoms (all electrons):
               1          2          3          4          5          6
     1  C    7.165140  -0.585192  -1.191084  -0.414633  -0.035950   0.333401
     2  C   -0.585192  23.763824  -1.547838   0.653216  -3.263693  -4.726733
     3  C   -1.191084  -1.547838  19.879858  -2.105468   1.350543  -5.492812
     4  C   -0.414633   0.653216  -2.105468   8.392949   0.028063   0.482349
     5  C   -0.035950  -3.263693   1.350543   0.028063   9.760109  -0.130873
     6  C    0.333401  -4.726733  -5.492812   0.482349  -0.130873  17.011936
     7  C   -0.034297  -8.474770  -5.111829  -1.259879  -1.513395  -1.874101
     8  C   -0.209654  -0.671405  -0.002801   0.016772  -0.821222  -0.773511
     9  C    0.109012   0.932657  -0.139165   0.038186  -0.596208  -1.735634
    10  C    0.036718   0.061055  -0.005238   0.008389  -0.010596  -0.056024
    11  C    0.006260  -0.162343  -0.018470   0.000558   0.064131   0.217220
    12  C   -0.101559  -1.317643   0.068937  -0.018883   0.912198   1.492496
    13  C   -0.100928   0.850017   0.393702  -0.075041   0.354273   0.693496
    14  C   -0.013647   0.100726   0.030964  -0.006401  -0.035312  -0.132740
    15  F   -0.000011  -0.000306   0.000039   0.000030   0.001872   0.002520
    16  F    0.000142  -0.003971  -0.001171   0.000796  -0.002480   0.019010
    17  F   -0.000024  -0.000545  -0.000028   0.000038   0.000068  -0.000220
    18  N   -0.145872   0.551123   0.319760  -0.020114   0.189999  -0.310194
    19  O    0.012660   0.129459  -0.107246   0.107468   0.002082  -0.031981
    20  O    0.400560  -0.145932  -0.014171   0.030233   0.011334   0.049222
    21  H   -0.024893   0.026351   0.030263  -0.008202   0.000722   0.001823
    22  H   -0.026322  -0.064296   0.308604   0.007988   0.009032  -0.010246
    23  H    0.002469   0.028457  -0.010307   0.276729  -0.010555   0.024246
    24  H   -0.000596  -0.013477   0.016956   0.029157   0.295884  -0.012715
    25  H    0.007658  -0.006139   0.001369  -0.009435   0.117707   0.241162
    26  H   -0.000962  -0.089578  -0.017754  -0.000735   0.009543   0.096031
    27  H    0.000087   0.011761   0.000242   0.000213  -0.000708   0.004991
    28  H   -0.000028   0.000285   0.000028  -0.000005  -0.000062  -0.001536
    29  H    0.000002   0.000362   0.000006   0.000000  -0.000074  -0.000987
    30  H   -0.001298  -0.088698   0.004228  -0.008908   0.030235   0.038890
               7          8          9         10         11         12
     1  C   -0.034297  -0.209654   0.109012   0.036718   0.006260  -0.101559
     2  C   -8.474770  -0.671405   0.932657   0.061055  -0.162343  -1.317643
     3  C   -5.111829  -0.002801  -0.139165  -0.005238  -0.018470   0.068937
     4  C   -1.259879   0.016772   0.038186   0.008389   0.000558  -0.018883
     5  C   -1.513395  -0.821222  -0.596208  -0.010596   0.064131   0.912198
     6  C   -1.874101  -0.773511  -1.735634  -0.056024   0.217220   1.492496
     7  C   26.142767   1.798982   1.361954   0.015686   0.018125  -1.699053
     8  C    1.798982  16.209157  -2.165553   0.671206  -1.249463  -2.013360
     9  C    1.361954  -2.165553  18.157835  -1.728326   0.899660  -3.318880
    10  C    0.015686   0.671206  -1.728326   7.975155  -1.241800   0.700132
    11  C    0.018125  -1.249463   0.899660  -1.241800  11.494114  -2.319018
    12  C   -1.699053  -2.013360  -3.318880   0.700132  -2.319018  14.625369
    13  C   -2.128080  -3.672820  -5.733867   0.096230  -1.595912   0.210195
    14  C   -0.113726  -1.132983   0.429886  -0.406033  -0.004771  -0.507879
    15  F   -0.002716   0.009769  -0.023335   0.036926  -0.221466   0.182389
    16  F   -0.011907   0.190237   0.016728   0.009349  -0.036122  -0.198016
    17  F    0.000859   0.056665  -0.007203   0.031858  -0.226748   0.077756
    18  N   -0.784389  -0.569322   0.143571   0.028725   0.000229   0.210867
    19  O   -0.028375   0.003318  -0.006065   0.000186   0.000016   0.000194
    20  O   -0.078552  -0.047917   0.002574   0.023933  -0.000031   0.001619
    21  H   -0.006961   0.000644  -0.000211  -0.000032   0.000000   0.000021
    22  H    0.068164   0.002464   0.000101   0.000013  -0.000004   0.000030
    23  H   -0.001205   0.000923   0.000091  -0.000008   0.000010   0.000059
    24  H   -0.007624  -0.003123  -0.000828   0.000086  -0.000228  -0.000192
    25  H   -0.057893   0.087238  -0.012737   0.004573  -0.007818  -0.005099
    26  H   -0.012980  -0.054578  -0.066830   0.028703  -0.003729   0.019411
    27  H   -0.024043   0.075393   0.144081  -0.016977  -0.013396   0.025339
    28  H    0.002245   0.000709   0.001603   0.292122   0.018657   0.012269
    29  H    0.001930   0.015046  -0.042616   0.009547   0.178339   0.096128
    30  H    0.011052   0.100853  -0.005956   0.004584  -0.021234   0.082405
              13         14         15         16         17         18
     1  C   -0.100928  -0.013647  -0.000011   0.000142  -0.000024  -0.145872
     2  C    0.850017   0.100726  -0.000306  -0.003971  -0.000545   0.551123
     3  C    0.393702   0.030964   0.000039  -0.001171  -0.000028   0.319760
     4  C   -0.075041  -0.006401   0.000030   0.000796   0.000038  -0.020114
     5  C    0.354273  -0.035312   0.001872  -0.002480   0.000068   0.189999
     6  C    0.693496  -0.132740   0.002520   0.019010  -0.000220  -0.310194
     7  C   -2.128080  -0.113726  -0.002716  -0.011907   0.000859  -0.784389
     8  C   -3.672820  -1.132983   0.009769   0.190237   0.056665  -0.569322
     9  C   -5.733867   0.429886  -0.023335   0.016728  -0.007203   0.143571
    10  C    0.096230  -0.406033   0.036926   0.009349   0.031858   0.028725
    11  C   -1.595912  -0.004771  -0.221466  -0.036122  -0.226748   0.000229
    12  C    0.210195  -0.507879   0.182389  -0.198016   0.077756   0.210867
    13  C   15.937389  -0.178543   0.021220   0.063215   0.083731   0.083433
    14  C   -0.178543   6.302625   0.118322   0.046863   0.104477  -0.000175
    15  F    0.021220   0.118322   9.237937  -0.037230  -0.056220   0.000497
    16  F    0.063215   0.046863  -0.037230   9.305504  -0.033074  -0.000291
    17  F    0.083731   0.104477  -0.056220  -0.033074   9.244552   0.000086
    18  N    0.083433  -0.000175   0.000497  -0.000291   0.000086   7.610720
    19  O    0.006336   0.000030   0.000000   0.000000   0.000000  -0.002109
    20  O   -0.000648  -0.000444   0.000000   0.000000   0.000000   0.000717
    21  H    0.000319   0.000001   0.000000   0.000000   0.000000   0.000224
    22  H   -0.000735   0.000002   0.000000   0.000000   0.000000  -0.001070
    23  H   -0.000452  -0.000005   0.000000   0.000000   0.000000   0.000130
    24  H    0.004320   0.000269   0.000000   0.000001   0.000000  -0.000328
    25  H   -0.060336  -0.005018  -0.000004  -0.000110   0.000006  -0.003972
    26  H    0.058909   0.000842   0.000000   0.000000   0.000000   0.201421
    27  H    0.101082   0.005402   0.000002   0.000000   0.000000  -0.020880
    28  H   -0.016755  -0.000111   0.000002   0.000015   0.000008  -0.000287
    29  H    0.049105  -0.009616   0.000507   0.000321   0.001097  -0.000021
    30  H    0.130326   0.004697   0.000188   0.007813   0.000009  -0.003115
              19         20         21         22         23         24
     1  C    0.012660   0.400560  -0.024893  -0.026322   0.002469  -0.000596
     2  C    0.129459  -0.145932   0.026351  -0.064296   0.028457  -0.013477
     3  C   -0.107246  -0.014171   0.030263   0.308604  -0.010307   0.016956
     4  C    0.107468   0.030233  -0.008202   0.007988   0.276729   0.029157
     5  C    0.002082   0.011334   0.000722   0.009032  -0.010555   0.295884
     6  C   -0.031981   0.049222   0.001823  -0.010246   0.024246  -0.012715
     7  C   -0.028375  -0.078552  -0.006961   0.068164  -0.001205  -0.007624
     8  C    0.003318  -0.047917   0.000644   0.002464   0.000923  -0.003123
     9  C   -0.006065   0.002574  -0.000211   0.000101   0.000091  -0.000828
    10  C    0.000186   0.023933  -0.000032   0.000013  -0.000008   0.000086
    11  C    0.000016  -0.000031   0.000000  -0.000004   0.000010  -0.000228
    12  C    0.000194   0.001619   0.000021   0.000030   0.000059  -0.000192
    13  C    0.006336  -0.000648   0.000319  -0.000735  -0.000452   0.004320
    14  C    0.000030  -0.000444   0.000001   0.000002  -0.000005   0.000269
    15  F    0.000000   0.000000   0.000000   0.000000   0.000000   0.000000
    16  F    0.000000   0.000000   0.000000   0.000000   0.000000   0.000001
    17  F    0.000000   0.000000   0.000000   0.000000   0.000000   0.000000
    18  N   -0.002109   0.000717   0.000224  -0.001070   0.000130  -0.000328
    19  O    8.562830  -0.145803   0.152289   0.005028  -0.000021   0.000006
    20  O   -0.145803   8.403488   0.006444  -0.000134   0.000031  -0.000002
    21  H    0.152289   0.006444   0.253983   0.000096   0.000000   0.000000
    22  H    0.005028  -0.000134   0.000096   0.440154  -0.003093  -0.000139
    23  H   -0.000021   0.000031   0.000000  -0.003093   0.454797  -0.002952
    24  H    0.000006  -0.000002   0.000000  -0.000139  -0.002952   0.454684
    25  H    0.000045   0.000034   0.000000   0.000012  -0.000133  -0.003513
    26  H    0.001934   0.051228  -0.000002  -0.000002   0.000000   0.000002
    27  H    0.000005  -0.000535   0.000000   0.000000   0.000000   0.000000
    28  H    0.000000   0.000001   0.000000   0.000000   0.000000   0.000000
    29  H    0.000000   0.000000   0.000000   0.000000   0.000000   0.000000
    30  H    0.000002   0.000028   0.000000   0.000000   0.000000  -0.000005
              25         26         27         28         29         30
     1  C    0.007658  -0.000962   0.000087  -0.000028   0.000002  -0.001298
     2  C   -0.006139  -0.089578   0.011761   0.000285   0.000362  -0.088698
     3  C    0.001369  -0.017754   0.000242   0.000028   0.000006   0.004228
     4  C   -0.009435  -0.000735   0.000213  -0.000005   0.000000  -0.008908
     5  C    0.117707   0.009543  -0.000708  -0.000062  -0.000074   0.030235
     6  C    0.241162   0.096031   0.004991  -0.001536  -0.000987   0.038890
     7  C   -0.057893  -0.012980  -0.024043   0.002245   0.001930   0.011052
     8  C    0.087238  -0.054578   0.075393   0.000709   0.015046   0.100853
     9  C   -0.012737  -0.066830   0.144081   0.001603  -0.042616  -0.005956
    10  C    0.004573   0.028703  -0.016977   0.292122   0.009547   0.004584
    11  C   -0.007818  -0.003729  -0.013396   0.018657   0.178339  -0.021234
    12  C   -0.005099   0.019411   0.025339   0.012269   0.096128   0.082405
    13  C   -0.060336   0.058909   0.101082  -0.016755   0.049105   0.130326
    14  C   -0.005018   0.000842   0.005402  -0.000111  -0.009616   0.004697
    15  F   -0.000004   0.000000   0.000002   0.000002   0.000507   0.000188
    16  F   -0.000110   0.000000   0.000000   0.000015   0.000321   0.007813
    17  F    0.000006   0.000000   0.000000   0.000008   0.001097   0.000009
    18  N   -0.003972   0.201421  -0.020880  -0.000287  -0.000021  -0.003115
    19  O    0.000045   0.001934   0.000005   0.000000   0.000000   0.000002
    20  O    0.000034   0.051228  -0.000535   0.000001   0.000000   0.000028
    21  H    0.000000  -0.000002   0.000000   0.000000   0.000000   0.000000
    22  H    0.000012  -0.000002   0.000000   0.000000   0.000000   0.000000
    23  H   -0.000133   0.000000   0.000000   0.000000   0.000000   0.000000
    24  H   -0.003513   0.000002   0.000000   0.000000   0.000000  -0.000005
    25  H    0.465189  -0.000023   0.000000   0.000000   0.000000   0.000339
    26  H   -0.000023   0.276567   0.006382  -0.000013   0.000000  -0.000102
    27  H    0.000000   0.006382   0.459342  -0.003432  -0.000109  -0.000120
    28  H    0.000000  -0.000013  -0.003432   0.450349  -0.003032   0.000014
    29  H    0.000000   0.000000  -0.000109  -0.003032   0.445964  -0.000119
    30  H    0.000339  -0.000102  -0.000120   0.000014  -0.000119   0.461355
 Mulliken charges:
               1
     1  C    0.812840
     2  C    0.053263
     3  C   -0.640117
     4  C   -0.145428
     5  C   -0.716666
     6  C    0.581514
     7  C   -0.195991
     8  C    0.148337
     9  C   -0.654525
    10  C   -0.570144
    11  C    0.225236
    12  C   -1.218231
    13  C    0.426819
    14  C    1.402298
    15  F   -0.270932
    16  F   -0.335624
    17  F   -0.277150
    18  N   -0.479363
    19  O   -0.662284
    20  O   -0.547277
    21  H    0.567121
    22  H    0.264355
    23  H    0.240789
    24  H    0.244358
    25  H    0.246898
    26  H    0.496314
    27  H    0.245880
    28  H    0.246953
    29  H    0.258220
    30  H    0.252536
 Sum of Mulliken charges =   0.00000
 Mulliken charges with hydrogens summed into heavy atoms:
               1
     1  C    0.812840
     2  C    0.053263
     3  C   -0.375762
     4  C    0.095361
     5  C   -0.472308
     6  C    0.828412
     7  C   -0.195991
     8  C    0.148337
     9  C   -0.408645
    10  C   -0.323191
    11  C    0.483457
    12  C   -1.218231
    13  C    0.679355
    14  C    1.402298
    15  F   -0.270932
    16  F   -0.335624
    17  F   -0.277150
    18  N    0.016951
    19  O   -0.095163
    20  O   -0.547277
 Electronic spatial extent (au):  <R**2>=           6850.1372
 Charge=              0.0000 electrons
 Dipole moment (field-independent basis, Debye):
    X=             -0.3291    Y=              3.8688    Z=             -0.5536  Tot=              3.9220
 Quadrupole moment (field-independent basis, Debye-Ang):
   XX=            -97.9633   YY=           -111.5772   ZZ=           -117.6862
   XY=             -4.9343   XZ=              1.8697   YZ=              3.1998
 Traceless Quadrupole moment (field-independent basis, Debye-Ang):
   XX=             11.1123   YY=             -2.5017   ZZ=             -8.6106
   XY=             -4.9343   XZ=              1.8697   YZ=              3.1998
 Octapole moment (field-independent basis, Debye-Ang**2):
  XXX=             12.0486  YYY=             95.8345  ZZZ=             12.2615  XYY=             -3.2970
  XXY=            -30.0487  XXZ=            -12.0178  XZZ=             -3.8255  YZZ=            -20.6149
  YYZ=             29.7848  XYZ=             -2.9174
 Hexadecapole moment (field-independent basis, Debye-Ang**3):
 XXXX=          -2141.2844 YYYY=          -5030.9295 ZZZZ=           -387.6760 XXXY=            689.8834
 XXXZ=            -22.3134 YYYX=            803.4324 YYYZ=            -28.1451 ZZZX=            -55.9473
 ZZZY=           -201.8684 XXYY=          -1321.6095 XXZZ=           -512.5593 YYZZ=          -1016.4475
 XXYZ=            -74.6504 YYXZ=            -34.4620 ZZXY=            309.8594
 N-N= 1.497628930780D+03 E-N=-5.438412636921D+03  KE= 1.034790896445D+03
 No NMR shielding tensors so no spin-rotation constants.
 Leave Link  601 at Fri Sep 29 16:08:47 2017, MaxMem=   196608000 cpu:         0.3
 (Enter /usr/local/g09_d01/l602.exe)
 FitSet:  NAtFit=    30 NAtPot=    30 NAtFrz=     0 MDM=    34 TotChg=   0.00000
 Breneman (CHELPG) radii used.
 Generate Potential Derived Charges using the Breneman model, NDens= 1.
 Grid spacing= 0.300 Box extension= 2.800
 NStep X,Y,Z=   50     54     30   Total possible points=       81000
 Number of Points to Fit=   18063

 **********************************************************************

            Electrostatic Properties Using The SCF Density

 **********************************************************************

       Atomic Center    1 is at  -0.349826  3.900992  0.785959
       Atomic Center    2 is at  -1.285082  2.873463  0.308671
       Atomic Center    3 is at  -2.651383  3.183906  0.217626
       Atomic Center    4 is at  -3.549312  2.334815 -0.405703
       Atomic Center    5 is at  -3.061849  1.176631 -1.016336
       Atomic Center    6 is at  -1.718849  0.842839 -0.947911
       Atomic Center    7 is at  -0.802015  1.653630 -0.252590
       Atomic Center    8 is at   1.146327  0.063760 -0.146615
       Atomic Center    9 is at   2.551711  0.063760 -0.146615
       Atomic Center   10 is at   3.267275 -1.125267 -0.146615
       Atomic Center   11 is at   2.607958 -2.350920 -0.134692
       Atomic Center   12 is at   1.215090 -2.353662 -0.094738
       Atomic Center   13 is at   0.481873 -1.171059 -0.089990
       Atomic Center   14 is at   0.504139 -3.676989 -0.060490
       Atomic Center   15 is at   0.698266 -4.374778 -1.200674
       Atomic Center   16 is at  -0.825951 -3.551142  0.098238
       Atomic Center   17 is at   0.950042 -4.459338  0.943514
       Atomic Center   18 is at   0.515368  1.299545 -0.077539
       Atomic Center   19 is at  -0.948013  5.037371  1.183801
       Atomic Center   20 is at   0.871773  3.808728  0.787317
       Atomic Center   21 is at  -0.276218  5.729658  1.289354
       Atomic Center   22 is at  -2.991859  4.123942  0.638358
       Atomic Center   23 is at  -4.604183  2.586873 -0.453447
       Atomic Center   24 is at  -3.736993  0.526510 -1.567507
       Atomic Center   25 is at  -1.362568 -0.036902 -1.470410
       Atomic Center   26 is at   1.107415  2.087294  0.180664
       Atomic Center   27 is at   3.080577  1.014355 -0.157361
       Atomic Center   28 is at   4.353339 -1.093669 -0.156532
       Atomic Center   29 is at   3.162578 -3.284118 -0.142026
       Atomic Center   30 is at  -0.594708 -1.220037  0.005354
   18063 points will be used for fitting atomic charges
 Fitting point charges to electrostatic potential
 Charges from ESP fit, RMS=   0.00417 RRMS=   0.31724:
 ESP charges:
               1
     1  C    0.748899
     2  C   -0.211421
     3  C   -0.075132
     4  C   -0.190181
     5  C   -0.044725
     6  C   -0.226698
     7  C    0.443564
     8  C    0.524527
     9  C   -0.333997
    10  C    0.000690
    11  C   -0.232584
    12  C   -0.021338
    13  C   -0.264033
    14  C    0.686536
    15  F   -0.249734
    16  F   -0.230973
    17  F   -0.250210
    18  N   -0.814398
    19  O   -0.639484
    20  O   -0.637845
    21  H    0.477741
    22  H    0.141790
    23  H    0.126275
    24  H    0.127888
    25  H    0.114083
    26  H    0.447131
    27  H    0.170340
    28  H    0.110248
    29  H    0.155083
    30  H    0.147958
 Sum of ESP charges =   0.00000
 ESP charges with hydrogens summed into heavy atoms:
               1
     1  C    0.748899
     2  C   -0.211421
     3  C    0.066659
     4  C   -0.063906
     5  C    0.083163
     6  C   -0.112616
     7  C    0.443564
     8  C    0.524527
     9  C   -0.163657
    10  C    0.110938
    11  C   -0.077501
    12  C   -0.021338
    13  C   -0.116075
    14  C    0.686536
    15  F   -0.249734
    16  F   -0.230973
    17  F   -0.250210
    18  N   -0.367267
    19  O   -0.161743
    20  O   -0.637845
 Charge=   0.00000 Dipole=    -0.3219     4.0378    -0.6651 Tot=     4.1048
 -----------------------------------------------------------------

              Electrostatic Properties (Atomic Units)

 -----------------------------------------------------------------
    Center     Electric         -------- Electric Field --------
               Potential          X             Y             Z
 -----------------------------------------------------------------
    1 Atom    -14.579891
    2 Atom    -14.702405
    3 Atom    -14.711238
    4 Atom    -14.721550
    5 Atom    -14.708598
    6 Atom    -14.718100
    7 Atom    -14.658775
    8 Atom    -14.666079
    9 Atom    -14.715569
   10 Atom    -14.712822
   11 Atom    -14.718251
   12 Atom    -14.701057
   13 Atom    -14.713883
   14 Atom    -14.473566
   15 Atom    -26.499965
   16 Atom    -26.492749
   17 Atom    -26.499161
   18 Atom    -18.288814
   19 Atom    -22.226622
   20 Atom    -22.294749
   21 Atom     -0.907195
   22 Atom     -1.080090
   23 Atom     -1.080739
   24 Atom     -1.075095
   25 Atom     -1.076307
   26 Atom     -1.003073
   27 Atom     -1.072006
   28 Atom     -1.076458
   29 Atom     -1.078264
   30 Atom     -1.075281
 -----------------------------------------------------------------
 Leave Link  602 at Fri Sep 29 16:08:54 2017, MaxMem=   196608000 cpu:         6.6
 (Enter /usr/local/g09_d01/l9999.exe)
 1\1\GINC-NODE15\SP\RPBE1PBE\6-31+G(d)\C14H10F3N1O2\DCASE\29-Sep-2017\0
 \\#PBE1PBE/6-31+G(d) density=current FormCheck=All SCRF=(PCM,Read,G03D
 efaults) #Pop=ChelpG nosymm\\Charge density of molecule 1\\0,1\C,0,-0.
 349826,3.900992,0.785959\C,0,-1.285082,2.873463,0.308671\C,0,-2.651383
 ,3.183906,0.217626\C,0,-3.549312,2.334815,-0.405703\C,0,-3.061849,1.17
 6631,-1.016336\C,0,-1.718849,0.842839,-0.947911\C,0,-0.802015,1.65363,
 -0.25259\C,0,1.146327,0.06376,-0.146615\C,0,2.551711,0.06376,-0.146615
 \C,0,3.267275,-1.125267,-0.146615\C,0,2.607958,-2.35092,-0.134692\C,0,
 1.21509,-2.353662,-0.094738\C,0,0.481873,-1.171059,-0.08999\C,0,0.5041
 39,-3.676989,-0.06049\F,0,0.698266,-4.374778,-1.200674\F,0,-0.825951,-
 3.551142,0.098238\F,0,0.950042,-4.459338,0.943514\N,0,0.515368,1.29954
 5,-0.077539\O,0,-0.948013,5.037371,1.183801\O,0,0.871773,3.808728,0.78
 7317\H,0,-0.276218,5.729658,1.289354\H,0,-2.991859,4.123942,0.638358\H
 ,0,-4.604183,2.586873,-0.453447\H,0,-3.736993,0.52651,-1.567507\H,0,-1
 .362568,-0.036902,-1.47041\H,0,1.107415,2.087294,0.180664\H,0,3.080577
 ,1.014355,-0.157361\H,0,4.353339,-1.093669,-0.156532\H,0,3.162578,-3.2
 84118,-0.142026\H,0,-0.594708,-1.220037,0.005354\\Version=ES64L-G09Rev
 D.01\HF=-1043.2056197\RMSD=1.827e-09\Dipole=-0.1294626,1.5220877,-0.21
 78011\Quadrupole=8.2617117,-1.8599258,-6.4017858,-3.6684954,1.3900635,
 2.3789966\PG=C01 [X(C14H10F3N1O2)]\\@


 NEVER LISTEN TO CRITICISM
 OR YOU'LL BE DOIN' EVERYBODY ELSE'S THING BUT BUT YOUR OWN.

                                               -- ANDY CAPP
 Job cpu time:       0 days  0 hours 14 minutes 46.1 seconds.
 File lengths (MBytes):  RWF=    217 Int=      0 D2E=      0 Chk=      8 Scr=      1
 Normal termination of Gaussian 09 at Fri Sep 29 16:08:54 2017.
